 Entering Gaussian System, Link 0=g09
 Input=freq.com
 Output=freq.log
 Initial command:
 /mnt/software/gaussian/g09/l1.exe "/scratch/Gau-16846.inp" -scrdir="/scratch/"
 Entering Link 1 = /mnt/software/gaussian/g09/l1.exe PID=     16849.
  
 Copyright (c) 1988,1990,1992,1993,1995,1998,2003,2009,2013,
            Gaussian, Inc.  All Rights Reserved.
  
 This is part of the Gaussian(R) 09 program.  It is based on
 the Gaussian(R) 03 system (copyright 2003, Gaussian, Inc.),
 the Gaussian(R) 98 system (copyright 1998, Gaussian, Inc.),
 the Gaussian(R) 94 system (copyright 1995, Gaussian, Inc.),
 the Gaussian 92(TM) system (copyright 1992, Gaussian, Inc.),
 the Gaussian 90(TM) system (copyright 1990, Gaussian, Inc.),
 the Gaussian 88(TM) system (copyright 1988, Gaussian, Inc.),
 the Gaussian 86(TM) system (copyright 1986, Carnegie Mellon
 University), and the Gaussian 82(TM) system (copyright 1983,
 Carnegie Mellon University). Gaussian is a federally registered
 trademark of Gaussian, Inc.
  
 This software contains proprietary and confidential information,
 including trade secrets, belonging to Gaussian, Inc.
  
 This software is provided under written license and may be
 used, copied, transmitted, or stored only in accord with that
 written license.
  
 The following legend is applicable only to US Government
 contracts under FAR:
  
                    RESTRICTED RIGHTS LEGEND
  
 Use, reproduction and disclosure by the US Government is
 subject to restrictions as set forth in subparagraphs (a)
 and (c) of the Commercial Computer Software - Restricted
 Rights clause in FAR 52.227-19.
  
 Gaussian, Inc.
 340 Quinnipiac St., Bldg. 40, Wallingford CT 06492
  
  
 ---------------------------------------------------------------
 Warning -- This program may not be used in any manner that
 competes with the business of Gaussian, Inc. or will provide
 assistance to any competitor of Gaussian, Inc.  The licensee
 of this program is prohibited from giving any competitor of
 Gaussian, Inc. access to this program.  By using this program,
 the user acknowledges that Gaussian, Inc. is engaged in the
 business of creating and licensing software in the field of
 computational chemistry and represents and warrants to the
 licensee that it is not a competitor of Gaussian, Inc. and that
 it will not use this program in any manner prohibited above.
 ---------------------------------------------------------------
  

 Cite this work as:
 Gaussian 09, Revision D.01,
 M. J. Frisch, G. W. Trucks, H. B. Schlegel, G. E. Scuseria, 
 M. A. Robb, J. R. Cheeseman, G. Scalmani, V. Barone, B. Mennucci, 
 G. A. Petersson, H. Nakatsuji, M. Caricato, X. Li, H. P. Hratchian, 
 A. F. Izmaylov, J. Bloino, G. Zheng, J. L. Sonnenberg, M. Hada, 
 M. Ehara, K. Toyota, R. Fukuda, J. Hasegawa, M. Ishida, T. Nakajima, 
 Y. Honda, O. Kitao, H. Nakai, T. Vreven, J. A. Montgomery, Jr., 
 J. E. Peralta, F. Ogliaro, M. Bearpark, J. J. Heyd, E. Brothers, 
 K. N. Kudin, V. N. Staroverov, T. Keith, R. Kobayashi, J. Normand, 
 K. Raghavachari, A. Rendell, J. C. Burant, S. S. Iyengar, J. Tomasi, 
 M. Cossi, N. Rega, J. M. Millam, M. Klene, J. E. Knox, J. B. Cross, 
 V. Bakken, C. Adamo, J. Jaramillo, R. Gomperts, R. E. Stratmann, 
 O. Yazyev, A. J. Austin, R. Cammi, C. Pomelli, J. W. Ochterski, 
 R. L. Martin, K. Morokuma, V. G. Zakrzewski, G. A. Voth, 
 P. Salvador, J. J. Dannenberg, S. Dapprich, A. D. Daniels, 
 O. Farkas, J. B. Foresman, J. V. Ortiz, J. Cioslowski, 
 and D. J. Fox, Gaussian, Inc., Wallingford CT, 2013.
 
 ******************************************
 Gaussian 09:  ES64L-G09RevD.01 24-Apr-2013
                 9-Jan-2017 
 ******************************************
 %mem=1000MB
 %NProcShared=4
 Will use up to    4 processors via shared memory.
 --------------------------------------------
 #P MP2 6-31G** Freq=HPModes pop=full gfinput
 --------------------------------------------
 1/10=4,30=1,38=1/1,3;
 2/12=2,17=6,18=5,40=1/2;
 3/5=1,6=6,7=101,11=9,16=1,24=10,25=1,30=1,71=2,140=1/1,2,3;
 4//1;
 5/5=2,38=5,98=1/2;
 8/6=3,8=1,10=2,19=11,30=-1/1;
 9/15=3,16=-3/6;
 11/6=1,8=1,15=11,17=12,24=-1,27=1,28=-2,29=300,32=6,42=3/1,2,10;
 10/6=2,21=1/2;
 8/6=4,8=1,10=2,19=11,30=-1/11,4;
 10/5=1,20=4/2;
 11/12=2,14=11,16=1,17=2,28=-2,42=3/2,10,12;
 6/7=3/1;
 7/8=11,10=1,12=2,25=1,44=2/1,2,3,16;
 1/10=4,30=1/3;
 99//99;
 Leave Link    1 at Mon Jan  9 11:29:01 2017, MaxMem=   131072000 cpu:         0.2
 (Enter /mnt/software/gaussian/g09/l101.exe)


 Symbolic Z-matrix:
 Charge =  0 Multiplicity = 1
 C
 C                    1    cc2
 N                    1    nc3      2    ncc3
 N                    2    nc4      1    ncc4     3    dih4     0
 C                    4    cn5      2    cnc5     1    dih5     0
 C                    3    cn6      1    cnc6     2    dih6     0
 H                    5    hc7      6    hcc7     3    dih7     0
 H                    6    hc8      3    hcn8     1    dih8     0
 H                    2    hc9      4    hcn9     5    dih9     0
 H                    1    hc10     3    hcn10    6    dih10    0
       Variables:
  cc2                   1.39514                  
  nc3                   1.34475                  
  ncc3                122.36847                  
  nc4                   1.34479                  
  ncc4                122.36764                  
  dih4                  0.                       
  cn5                   1.34357                  
  cnc5                115.25802                  
  dih5                  0.                       
  cn6                   1.3438                   
  cnc6                115.25043                  
  dih6                  0.                       
  hc7                   1.08355                  
  hcc7                120.82425                  
  dih7                180.                       
  hc8                   1.08354                  
  hcn8                116.78009                  
  dih8                180.                       
  hc9                   1.08342                  
  hcn9                116.74735                  
  dih9                180.                       
  hc10                  1.0835                   
  hcn10               116.73763                  
  dih10               180.                       
 
 NAtoms=     10 NQM=       10 NQMF=       0 NMMI=      0 NMMIF=      0
                NMic=       0 NMicF=      0.
                    Isotopes and Nuclear Properties:
 (Nuclear quadrupole moments (NQMom) in fm**2, nuclear magnetic moments (NMagM)
  in nuclear magnetons)

  Atom         1           2           3           4           5           6           7           8           9          10
 IAtWgt=          12          12          14          14          12          12           1           1           1           1
 AtmWgt=  12.0000000  12.0000000  14.0030740  14.0030740  12.0000000  12.0000000   1.0078250   1.0078250   1.0078250   1.0078250
 NucSpn=           0           0           2           2           0           0           1           1           1           1
 AtZEff=   0.0000000   0.0000000   0.0000000   0.0000000   0.0000000   0.0000000   0.0000000   0.0000000   0.0000000   0.0000000
 NQMom=    0.0000000   0.0000000   2.0440000   2.0440000   0.0000000   0.0000000   0.0000000   0.0000000   0.0000000   0.0000000
 NMagM=    0.0000000   0.0000000   0.4037610   0.4037610   0.0000000   0.0000000   2.7928460   2.7928460   2.7928460   2.7928460
 AtZNuc=   6.0000000   6.0000000   7.0000000   7.0000000   6.0000000   6.0000000   1.0000000   1.0000000   1.0000000   1.0000000
 Leave Link  101 at Mon Jan  9 11:29:01 2017, MaxMem=   131072000 cpu:         0.2
 (Enter /mnt/software/gaussian/g09/l103.exe)

 GradGradGradGradGradGradGradGradGradGradGradGradGradGradGradGradGradGrad
 Berny optimization.
 Initialization pass.
                       ----------------------------
                       !    Initial Parameters    !
                       ! (Angstroms and Degrees)  !
 ----------------------                            ----------------------
 !      Name          Value   Derivative information (Atomic Units)     !
 ------------------------------------------------------------------------
 !       cc2         1.3951   calculate D2E/DX2 analytically            !
 !       nc3         1.3447   calculate D2E/DX2 analytically            !
 !      ncc3       122.3685   calculate D2E/DX2 analytically            !
 !       nc4         1.3448   calculate D2E/DX2 analytically            !
 !      ncc4       122.3676   calculate D2E/DX2 analytically            !
 !      dih4         0.0      calculate D2E/DX2 analytically            !
 !       cn5         1.3436   calculate D2E/DX2 analytically            !
 !      cnc5       115.258    calculate D2E/DX2 analytically            !
 !      dih5         0.0      calculate D2E/DX2 analytically            !
 !       cn6         1.3438   calculate D2E/DX2 analytically            !
 !      cnc6       115.2504   calculate D2E/DX2 analytically            !
 !      dih6         0.0      calculate D2E/DX2 analytically            !
 !       hc7         1.0835   calculate D2E/DX2 analytically            !
 !      hcc7       120.8242   calculate D2E/DX2 analytically            !
 !      dih7       180.0      calculate D2E/DX2 analytically            !
 !       hc8         1.0835   calculate D2E/DX2 analytically            !
 !      hcn8       116.7801   calculate D2E/DX2 analytically            !
 !      dih8       180.0      calculate D2E/DX2 analytically            !
 !       hc9         1.0834   calculate D2E/DX2 analytically            !
 !      hcn9       116.7473   calculate D2E/DX2 analytically            !
 !      dih9       180.0      calculate D2E/DX2 analytically            !
 !      hc10         1.0835   calculate D2E/DX2 analytically            !
 !      hcn10      116.7376   calculate D2E/DX2 analytically            !
 !      dih10      180.0      calculate D2E/DX2 analytically            !
 ------------------------------------------------------------------------
 Trust Radius=3.00D-01 FncErr=1.00D-07 GrdErr=1.00D-07
 Number of steps in this run=      2 maximum allowed number of steps=      2.
 GradGradGradGradGradGradGradGradGradGradGradGradGradGradGradGradGradGrad

 Leave Link  103 at Mon Jan  9 11:29:01 2017, MaxMem=   131072000 cpu:         0.0
 (Enter /mnt/software/gaussian/g09/l202.exe)
                          Input orientation:                          
 ---------------------------------------------------------------------
 Center     Atomic      Atomic             Coordinates (Angstroms)
 Number     Number       Type             X           Y           Z
 ---------------------------------------------------------------------
      1          6           0        0.000000    0.000000    0.000000
      2          6           0        0.000000    0.000000    1.395139
      3          7           0        1.135806    0.000000   -0.719928
      4          7           0        1.135847    0.000000    2.115070
      5          6           0        2.270584    0.000000    1.395657
      6          6           0        2.270654    0.000000   -0.000257
      7          1           0        3.201042    0.000000    1.950920
      8          1           0        3.200991    0.000000   -0.555703
      9          1           0       -0.929790    0.000000    1.951277
     10          1           0       -0.929772    0.000000   -0.556322
 ---------------------------------------------------------------------
                    Distance matrix (angstroms):
                    1          2          3          4          5
     1  C    0.000000
     2  C    1.395139   0.000000
     3  N    1.344750   2.400742   0.000000
     4  N    2.400764   1.344786   2.834998   0.000000
     5  C    2.665222   2.270584   2.400712   1.343571   0.000000
     6  C    2.270654   2.665145   1.343803   2.400499   1.395914
     7  H    3.748701   3.248933   3.376185   2.071709   1.083545
     8  H    3.248869   3.748617   2.071705   3.376070   2.161820
     9  H    2.161479   1.083420   3.376688   2.072121   3.248247
    10  H    1.083499   2.161637   2.072047   3.376850   3.748666
                    6          7          8          9         10
     6  C    0.000000
     7  H    2.161645   0.000000
     8  H    1.083535   2.506623   0.000000
     9  H    3.748510   4.130833   4.832008   0.000000
    10  H    3.248374   4.832172   4.130763   2.507599   0.000000
 Stoichiometry    C4H4N2
 Framework group  CS[SG(C4H4N2)]
 Deg. of freedom    17
 Full point group                 CS      NOp   2
 Largest Abelian subgroup         CS      NOp   2
 Largest concise Abelian subgroup C1      NOp   1
                         Standard orientation:                         
 ---------------------------------------------------------------------
 Center     Atomic      Atomic             Coordinates (Angstroms)
 Number     Number       Type             X           Y           Z
 ---------------------------------------------------------------------
      1          6           0       -1.188975   -0.601978    0.000000
      2          6           0       -0.000471   -1.332644    0.000000
      3          7           0       -1.207426    0.742645    0.000000
      4          7           0        1.207699   -0.742073    0.000000
      5          6           0        1.189126    0.601370    0.000000
      6          6           0        0.000000    1.332502    0.000000
      7          1           0        2.149450    1.103213    0.000000
      8          1           0        0.014060    2.415945    0.000000
      9          1           0       -0.013656   -2.415984    0.000000
     10          1           0       -2.149842   -1.102681    0.000000
 ---------------------------------------------------------------------
 Rotational constants (GHZ):      6.3918999      5.8780333      3.0621031
 Leave Link  202 at Mon Jan  9 11:29:01 2017, MaxMem=   131072000 cpu:         0.0
 (Enter /mnt/software/gaussian/g09/l301.exe)
 Standard basis: 6-31G(d,p) (6D, 7F)
 Ernie: Thresh=  0.10000D-02 Tol=  0.10000D-05 Strict=F.
 AO basis set in the form of general basis input (Overlap normalization):
      1 0
 S   6 1.00       0.000000000000
      0.3047524880D+04  0.1834737132D-02
      0.4573695180D+03  0.1403732281D-01
      0.1039486850D+03  0.6884262226D-01
      0.2921015530D+02  0.2321844432D+00
      0.9286662960D+01  0.4679413484D+00
      0.3163926960D+01  0.3623119853D+00
 SP   3 1.00       0.000000000000
      0.7868272350D+01 -0.1193324198D+00  0.6899906659D-01
      0.1881288540D+01 -0.1608541517D+00  0.3164239610D+00
      0.5442492580D+00  0.1143456438D+01  0.7443082909D+00
 SP   1 1.00       0.000000000000
      0.1687144782D+00  0.1000000000D+01  0.1000000000D+01
 D   1 1.00       0.000000000000
      0.8000000000D+00  0.1000000000D+01
 ****
      2 0
 S   6 1.00       0.000000000000
      0.3047524880D+04  0.1834737132D-02
      0.4573695180D+03  0.1403732281D-01
      0.1039486850D+03  0.6884262226D-01
      0.2921015530D+02  0.2321844432D+00
      0.9286662960D+01  0.4679413484D+00
      0.3163926960D+01  0.3623119853D+00
 SP   3 1.00       0.000000000000
      0.7868272350D+01 -0.1193324198D+00  0.6899906659D-01
      0.1881288540D+01 -0.1608541517D+00  0.3164239610D+00
      0.5442492580D+00  0.1143456438D+01  0.7443082909D+00
 SP   1 1.00       0.000000000000
      0.1687144782D+00  0.1000000000D+01  0.1000000000D+01
 D   1 1.00       0.000000000000
      0.8000000000D+00  0.1000000000D+01
 ****
      3 0
 S   6 1.00       0.000000000000
      0.4173511460D+04  0.1834772160D-02
      0.6274579110D+03  0.1399462700D-01
      0.1429020930D+03  0.6858655181D-01
      0.4023432930D+02  0.2322408730D+00
      0.1282021290D+02  0.4690699481D+00
      0.4390437010D+01  0.3604551991D+00
 SP   3 1.00       0.000000000000
      0.1162636186D+02 -0.1149611817D+00  0.6757974388D-01
      0.2716279807D+01 -0.1691174786D+00  0.3239072959D+00
      0.7722183966D+00  0.1145851947D+01  0.7408951398D+00
 SP   1 1.00       0.000000000000
      0.2120314975D+00  0.1000000000D+01  0.1000000000D+01
 D   1 1.00       0.000000000000
      0.8000000000D+00  0.1000000000D+01
 ****
      4 0
 S   6 1.00       0.000000000000
      0.4173511460D+04  0.1834772160D-02
      0.6274579110D+03  0.1399462700D-01
      0.1429020930D+03  0.6858655181D-01
      0.4023432930D+02  0.2322408730D+00
      0.1282021290D+02  0.4690699481D+00
      0.4390437010D+01  0.3604551991D+00
 SP   3 1.00       0.000000000000
      0.1162636186D+02 -0.1149611817D+00  0.6757974388D-01
      0.2716279807D+01 -0.1691174786D+00  0.3239072959D+00
      0.7722183966D+00  0.1145851947D+01  0.7408951398D+00
 SP   1 1.00       0.000000000000
      0.2120314975D+00  0.1000000000D+01  0.1000000000D+01
 D   1 1.00       0.000000000000
      0.8000000000D+00  0.1000000000D+01
 ****
      5 0
 S   6 1.00       0.000000000000
      0.3047524880D+04  0.1834737132D-02
      0.4573695180D+03  0.1403732281D-01
      0.1039486850D+03  0.6884262226D-01
      0.2921015530D+02  0.2321844432D+00
      0.9286662960D+01  0.4679413484D+00
      0.3163926960D+01  0.3623119853D+00
 SP   3 1.00       0.000000000000
      0.7868272350D+01 -0.1193324198D+00  0.6899906659D-01
      0.1881288540D+01 -0.1608541517D+00  0.3164239610D+00
      0.5442492580D+00  0.1143456438D+01  0.7443082909D+00
 SP   1 1.00       0.000000000000
      0.1687144782D+00  0.1000000000D+01  0.1000000000D+01
 D   1 1.00       0.000000000000
      0.8000000000D+00  0.1000000000D+01
 ****
      6 0
 S   6 1.00       0.000000000000
      0.3047524880D+04  0.1834737132D-02
      0.4573695180D+03  0.1403732281D-01
      0.1039486850D+03  0.6884262226D-01
      0.2921015530D+02  0.2321844432D+00
      0.9286662960D+01  0.4679413484D+00
      0.3163926960D+01  0.3623119853D+00
 SP   3 1.00       0.000000000000
      0.7868272350D+01 -0.1193324198D+00  0.6899906659D-01
      0.1881288540D+01 -0.1608541517D+00  0.3164239610D+00
      0.5442492580D+00  0.1143456438D+01  0.7443082909D+00
 SP   1 1.00       0.000000000000
      0.1687144782D+00  0.1000000000D+01  0.1000000000D+01
 D   1 1.00       0.000000000000
      0.8000000000D+00  0.1000000000D+01
 ****
      7 0
 S   3 1.00       0.000000000000
      0.1873113696D+02  0.3349460434D-01
      0.2825394365D+01  0.2347269535D+00
      0.6401216923D+00  0.8137573261D+00
 S   1 1.00       0.000000000000
      0.1612777588D+00  0.1000000000D+01
 P   1 1.00       0.000000000000
      0.1100000000D+01  0.1000000000D+01
 ****
      8 0
 S   3 1.00       0.000000000000
      0.1873113696D+02  0.3349460434D-01
      0.2825394365D+01  0.2347269535D+00
      0.6401216923D+00  0.8137573261D+00
 S   1 1.00       0.000000000000
      0.1612777588D+00  0.1000000000D+01
 P   1 1.00       0.000000000000
      0.1100000000D+01  0.1000000000D+01
 ****
      9 0
 S   3 1.00       0.000000000000
      0.1873113696D+02  0.3349460434D-01
      0.2825394365D+01  0.2347269535D+00
      0.6401216923D+00  0.8137573261D+00
 S   1 1.00       0.000000000000
      0.1612777588D+00  0.1000000000D+01
 P   1 1.00       0.000000000000
      0.1100000000D+01  0.1000000000D+01
 ****
     10 0
 S   3 1.00       0.000000000000
      0.1873113696D+02  0.3349460434D-01
      0.2825394365D+01  0.2347269535D+00
      0.6401216923D+00  0.8137573261D+00
 S   1 1.00       0.000000000000
      0.1612777588D+00  0.1000000000D+01
 P   1 1.00       0.000000000000
      0.1100000000D+01  0.1000000000D+01
 ****

 There are    82 symmetry adapted cartesian basis functions of A'  symmetry.
 There are    28 symmetry adapted cartesian basis functions of A"  symmetry.
 There are    82 symmetry adapted basis functions of A'  symmetry.
 There are    28 symmetry adapted basis functions of A"  symmetry.
   110 basis functions,   196 primitive gaussians,   110 cartesian basis functions
    21 alpha electrons       21 beta electrons
       nuclear repulsion energy       208.0231975716 Hartrees.
 IExCor=    0 DFT=F Ex=HF Corr=None ExCW=0 ScaHFX=  1.000000
 ScaDFX=  1.000000  1.000000  1.000000  1.000000 ScalE2=  1.000000  1.000000
 IRadAn=      0 IRanWt=     -1 IRanGd=            0 ICorTp=0 IEmpDi=  4
 NAtoms=   10 NActive=   10 NUniq=   10 SFac= 1.00D+00 NAtFMM=   60 NAOKFM=F Big=F
 Integral buffers will be    131072 words long.
 Raffenetti 1 integral format.
 Two-electron integral symmetry is turned on.
 Leave Link  301 at Mon Jan  9 11:29:01 2017, MaxMem=   131072000 cpu:         0.2
 (Enter /mnt/software/gaussian/g09/l302.exe)
 NPDir=0 NMtPBC=     1 NCelOv=     1 NCel=       1 NClECP=     1 NCelD=      1
         NCelK=      1 NCelE2=     1 NClLst=     1 CellRange=     0.0.
 One-electron integrals computed using PRISM.
 NBasis=   110 RedAO= T EigKep=  1.96D-03  NBF=    82    28
 NBsUse=   110 1.00D-06 EigRej= -1.00D+00 NBFU=    82    28
 Leave Link  302 at Mon Jan  9 11:29:01 2017, MaxMem=   131072000 cpu:         0.5
 (Enter /mnt/software/gaussian/g09/l303.exe)
 DipDrv:  MaxL=1.
 Leave Link  303 at Mon Jan  9 11:29:01 2017, MaxMem=   131072000 cpu:         0.1
 (Enter /mnt/software/gaussian/g09/l401.exe)
 ExpMin= 1.61D-01 ExpMax= 4.17D+03 ExpMxC= 6.27D+02 IAcc=1 IRadAn=         1 AccDes= 0.00D+00
 Harris functional with IExCor=  205 and IRadAn=       1 diagonalized for initial guess.
 HarFok:  IExCor=  205 AccDes= 0.00D+00 IRadAn=         1 IDoV= 1 UseB2=F ITyADJ=14
 ICtDFT=  3500011 ScaDFX=  1.000000  1.000000  1.000000  1.000000
 FoFCou: FMM=F IPFlag=           0 FMFlag=      100000 FMFlg1=           0
         NFxFlg=           0 DoJE=T BraDBF=F KetDBF=T FulRan=T
         wScrn=  0.000000 ICntrl=     500 IOpCl=  0 I1Cent=   200000004 NGrid=           0
         NMat0=    1 NMatS0=      1 NMatT0=    0 NMatD0=    1 NMtDS0=    0 NMtDT0=    0
 Petite list used in FoFCou.
 Harris En= -262.931814730952    
 JPrj=0 DoOrth=F DoCkMO=F.
 Initial guess orbital symmetries:
       Occupied  (A') (A') (A') (A') (A') (A') (A') (A') (A') (A')
                 (A') (A') (A') (A') (A') (A") (A') (A") (A') (A")
                 (A')
       Virtual   (A") (A") (A") (A') (A') (A') (A') (A') (A') (A')
                 (A') (A') (A') (A') (A") (A') (A') (A") (A') (A")
                 (A') (A') (A') (A") (A") (A') (A') (A') (A') (A')
                 (A") (A') (A') (A') (A') (A') (A') (A") (A') (A")
                 (A') (A") (A") (A") (A") (A') (A') (A') (A') (A')
                 (A') (A') (A') (A") (A') (A') (A") (A') (A") (A')
                 (A") (A") (A') (A") (A') (A') (A") (A') (A') (A")
                 (A') (A") (A") (A') (A') (A') (A') (A') (A') (A')
                 (A') (A') (A') (A') (A') (A') (A') (A') (A')
 The electronic state of the initial guess is 1-A'.
 Leave Link  401 at Mon Jan  9 11:29:01 2017, MaxMem=   131072000 cpu:         0.5
 (Enter /mnt/software/gaussian/g09/l502.exe)
 Closed shell SCF:
 Using DIIS extrapolation, IDIIS=  1040.
 Integral symmetry usage will be decided dynamically.
 Keep R1 ints in memory in symmetry-blocked form, NReq=28601792.
 IVT=       56376 IEndB=       56376 NGot=   131072000 MDV=   121108884
 LenX=   121108884 LenY=   121096343
 Requested convergence on RMS density matrix=1.00D-08 within 128 cycles.
 Requested convergence on MAX density matrix=1.00D-06.
 Requested convergence on             energy=1.00D-06.
 No special actions if energy rises.
 FoFCou: FMM=F IPFlag=           0 FMFlag=           0 FMFlg1=           0
         NFxFlg=           0 DoJE=F BraDBF=F KetDBF=F FulRan=T
         wScrn=  0.000000 ICntrl=     600 IOpCl=  0 I1Cent=           0 NGrid=           0
         NMat0=    1 NMatS0=   6105 NMatT0=    0 NMatD0=    1 NMtDS0=    0 NMtDT0=    0
 Petite list used in FoFCou.

 Cycle   1  Pass 1  IDiag  1:
 E= -262.528880188838    
 DIIS: error= 6.83D-02 at cycle   1 NSaved=   1.
 NSaved= 1 IEnMin= 1 EnMin= -262.528880188838     IErMin= 1 ErrMin= 6.83D-02
 ErrMax= 6.83D-02  0.00D+00 EMaxC= 1.00D-01 BMatC= 3.13D-01 BMatP= 3.13D-01
 IDIUse=3 WtCom= 3.17D-01 WtEn= 6.83D-01
 Coeff-Com:  0.100D+01
 Coeff-En:   0.100D+01
 Coeff:      0.100D+01
 Gap=     0.456 Goal=   None    Shift=    0.000
 GapD=    0.456 DampG=2.000 DampE=0.500 DampFc=1.0000 IDamp=-1.
 RMSDP=5.22D-03 MaxDP=6.55D-02              OVMax= 1.00D-01

 Cycle   2  Pass 1  IDiag  1:
 E= -262.676877064892     Delta-E=       -0.147996876054 Rises=F Damp=F
 DIIS: error= 1.03D-02 at cycle   2 NSaved=   2.
 NSaved= 2 IEnMin= 2 EnMin= -262.676877064892     IErMin= 2 ErrMin= 1.03D-02
 ErrMax= 1.03D-02  0.00D+00 EMaxC= 1.00D-01 BMatC= 1.20D-02 BMatP= 3.13D-01
 IDIUse=3 WtCom= 8.97D-01 WtEn= 1.03D-01
 Coeff-Com:  0.291D-01 0.971D+00
 Coeff-En:   0.000D+00 0.100D+01
 Coeff:      0.261D-01 0.974D+00
 Gap=     0.449 Goal=   None    Shift=    0.000
 RMSDP=1.25D-03 MaxDP=1.41D-02 DE=-1.48D-01 OVMax= 2.38D-02

 Cycle   3  Pass 1  IDiag  1:
 E= -262.685456309941     Delta-E=       -0.008579245049 Rises=F Damp=F
 DIIS: error= 3.88D-03 at cycle   3 NSaved=   3.
 NSaved= 3 IEnMin= 3 EnMin= -262.685456309941     IErMin= 3 ErrMin= 3.88D-03
 ErrMax= 3.88D-03  0.00D+00 EMaxC= 1.00D-01 BMatC= 1.05D-03 BMatP= 1.20D-02
 IDIUse=3 WtCom= 9.61D-01 WtEn= 3.88D-02
 Coeff-Com: -0.190D-01 0.197D+00 0.822D+00
 Coeff-En:   0.000D+00 0.000D+00 0.100D+01
 Coeff:     -0.183D-01 0.190D+00 0.829D+00
 Gap=     0.448 Goal=   None    Shift=    0.000
 RMSDP=2.80D-04 MaxDP=4.19D-03 DE=-8.58D-03 OVMax= 7.45D-03

 Cycle   4  Pass 1  IDiag  1:
 E= -262.686494299033     Delta-E=       -0.001037989093 Rises=F Damp=F
 DIIS: error= 6.91D-04 at cycle   4 NSaved=   4.
 NSaved= 4 IEnMin= 4 EnMin= -262.686494299033     IErMin= 4 ErrMin= 6.91D-04
 ErrMax= 6.91D-04  0.00D+00 EMaxC= 1.00D-01 BMatC= 2.02D-05 BMatP= 1.05D-03
 IDIUse=3 WtCom= 9.93D-01 WtEn= 6.91D-03
 Coeff-Com: -0.327D-03-0.195D-01 0.674D-02 0.101D+01
 Coeff-En:   0.000D+00 0.000D+00 0.000D+00 0.100D+01
 Coeff:     -0.325D-03-0.194D-01 0.669D-02 0.101D+01
 Gap=     0.448 Goal=   None    Shift=    0.000
 RMSDP=7.56D-05 MaxDP=9.71D-04 DE=-1.04D-03 OVMax= 1.70D-03

 Cycle   5  Pass 1  IDiag  1:
 E= -262.686524690770     Delta-E=       -0.000030391737 Rises=F Damp=F
 DIIS: error= 2.57D-04 at cycle   5 NSaved=   5.
 NSaved= 5 IEnMin= 5 EnMin= -262.686524690770     IErMin= 5 ErrMin= 2.57D-04
 ErrMax= 2.57D-04  0.00D+00 EMaxC= 1.00D-01 BMatC= 2.12D-06 BMatP= 2.02D-05
 IDIUse=3 WtCom= 9.97D-01 WtEn= 2.57D-03
 Coeff-Com:  0.992D-03-0.132D-01-0.461D-01 0.443D-01 0.101D+01
 Coeff-En:   0.000D+00 0.000D+00 0.000D+00 0.000D+00 0.100D+01
 Coeff:      0.989D-03-0.131D-01-0.460D-01 0.442D-01 0.101D+01
 Gap=     0.449 Goal=   None    Shift=    0.000
 RMSDP=2.25D-05 MaxDP=6.17D-04 DE=-3.04D-05 OVMax= 1.07D-03

 Cycle   6  Pass 1  IDiag  1:
 E= -262.686528907317     Delta-E=       -0.000004216546 Rises=F Damp=F
 DIIS: error= 1.02D-04 at cycle   6 NSaved=   6.
 NSaved= 6 IEnMin= 6 EnMin= -262.686528907317     IErMin= 6 ErrMin= 1.02D-04
 ErrMax= 1.02D-04  0.00D+00 EMaxC= 1.00D-01 BMatC= 6.33D-07 BMatP= 2.12D-06
 IDIUse=3 WtCom= 9.99D-01 WtEn= 1.02D-03
 Coeff-Com:  0.339D-03-0.189D-02-0.147D-01-0.110D+00 0.364D+00 0.762D+00
 Coeff-En:   0.000D+00 0.000D+00 0.000D+00 0.000D+00 0.000D+00 0.100D+01
 Coeff:      0.338D-03-0.188D-02-0.147D-01-0.110D+00 0.364D+00 0.762D+00
 Gap=     0.449 Goal=   None    Shift=    0.000
 RMSDP=8.53D-06 MaxDP=1.85D-04 DE=-4.22D-06 OVMax= 2.52D-04

 Cycle   7  Pass 1  IDiag  1:
 E= -262.686529675021     Delta-E=       -0.000000767704 Rises=F Damp=F
 DIIS: error= 2.92D-05 at cycle   7 NSaved=   7.
 NSaved= 7 IEnMin= 7 EnMin= -262.686529675021     IErMin= 7 ErrMin= 2.92D-05
 ErrMax= 2.92D-05  0.00D+00 EMaxC= 1.00D-01 BMatC= 3.95D-08 BMatP= 6.33D-07
 IDIUse=1 WtCom= 1.00D+00 WtEn= 0.00D+00
 Coeff-Com: -0.241D-03 0.235D-02 0.110D-01 0.349D-01-0.210D+00-0.511D+00
 Coeff-Com:  0.167D+01
 Coeff:     -0.241D-03 0.235D-02 0.110D-01 0.349D-01-0.210D+00-0.511D+00
 Coeff:      0.167D+01
 Gap=     0.449 Goal=   None    Shift=    0.000
 RMSDP=4.58D-06 MaxDP=1.02D-04 DE=-7.68D-07 OVMax= 2.45D-04

 Cycle   8  Pass 1  IDiag  1:
 E= -262.686529810823     Delta-E=       -0.000000135802 Rises=F Damp=F
 DIIS: error= 3.43D-06 at cycle   8 NSaved=   8.
 NSaved= 8 IEnMin= 8 EnMin= -262.686529810823     IErMin= 8 ErrMin= 3.43D-06
 ErrMax= 3.43D-06  0.00D+00 EMaxC= 1.00D-01 BMatC= 8.30D-10 BMatP= 3.95D-08
 IDIUse=1 WtCom= 1.00D+00 WtEn= 0.00D+00
 Coeff-Com:  0.544D-04-0.607D-03-0.266D-02-0.567D-02 0.504D-01 0.106D+00
 Coeff-Com: -0.474D+00 0.133D+01
 Coeff:      0.544D-04-0.607D-03-0.266D-02-0.567D-02 0.504D-01 0.106D+00
 Coeff:     -0.474D+00 0.133D+01
 Gap=     0.449 Goal=   None    Shift=    0.000
 RMSDP=7.35D-07 MaxDP=1.19D-05 DE=-1.36D-07 OVMax= 2.93D-05

 Cycle   9  Pass 1  IDiag  1:
 E= -262.686529813213     Delta-E=       -0.000000002390 Rises=F Damp=F
 DIIS: error= 6.02D-07 at cycle   9 NSaved=   9.
 NSaved= 9 IEnMin= 9 EnMin= -262.686529813213     IErMin= 9 ErrMin= 6.02D-07
 ErrMax= 6.02D-07  0.00D+00 EMaxC= 1.00D-01 BMatC= 4.19D-11 BMatP= 8.30D-10
 IDIUse=1 WtCom= 1.00D+00 WtEn= 0.00D+00
 Coeff-Com:  0.141D-04-0.148D-03-0.655D-03-0.176D-02 0.128D-01 0.274D-01
 Coeff-Com: -0.107D+00 0.159D+00 0.910D+00
 Coeff:      0.141D-04-0.148D-03-0.655D-03-0.176D-02 0.128D-01 0.274D-01
 Coeff:     -0.107D+00 0.159D+00 0.910D+00
 Gap=     0.449 Goal=   None    Shift=    0.000
 RMSDP=1.15D-07 MaxDP=1.69D-06 DE=-2.39D-09 OVMax= 3.24D-06

 Cycle  10  Pass 1  IDiag  1:
 E= -262.686529813270     Delta-E=       -0.000000000058 Rises=F Damp=F
 DIIS: error= 3.42D-07 at cycle  10 NSaved=  10.
 NSaved=10 IEnMin=10 EnMin= -262.686529813270     IErMin=10 ErrMin= 3.42D-07
 ErrMax= 3.42D-07  0.00D+00 EMaxC= 1.00D-01 BMatC= 1.04D-11 BMatP= 4.19D-11
 IDIUse=1 WtCom= 1.00D+00 WtEn= 0.00D+00
 Coeff-Com: -0.407D-05 0.491D-04 0.215D-03 0.330D-03-0.394D-02-0.816D-02
 Coeff-Com:  0.425D-01-0.169D+00 0.304D+00 0.834D+00
 Coeff:     -0.407D-05 0.491D-04 0.215D-03 0.330D-03-0.394D-02-0.816D-02
 Coeff:      0.425D-01-0.169D+00 0.304D+00 0.834D+00
 Gap=     0.449 Goal=   None    Shift=    0.000
 RMSDP=5.09D-08 MaxDP=6.72D-07 DE=-5.79D-11 OVMax= 1.61D-06

 Cycle  11  Pass 1  IDiag  1:
 E= -262.686529813288     Delta-E=       -0.000000000018 Rises=F Damp=F
 DIIS: error= 1.12D-07 at cycle  11 NSaved=  11.
 NSaved=11 IEnMin=11 EnMin= -262.686529813288     IErMin=11 ErrMin= 1.12D-07
 ErrMax= 1.12D-07  0.00D+00 EMaxC= 1.00D-01 BMatC= 3.36D-13 BMatP= 1.04D-11
 IDIUse=1 WtCom= 1.00D+00 WtEn= 0.00D+00
 Coeff-Com: -0.772D-07-0.198D-07-0.348D-06 0.583D-04-0.105D-03-0.119D-03
 Coeff-Com: -0.108D-02 0.202D-01-0.111D+00-0.120D+00 0.121D+01
 Coeff:     -0.772D-07-0.198D-07-0.348D-06 0.583D-04-0.105D-03-0.119D-03
 Coeff:     -0.108D-02 0.202D-01-0.111D+00-0.120D+00 0.121D+01
 Gap=     0.449 Goal=   None    Shift=    0.000
 RMSDP=1.62D-08 MaxDP=1.82D-07 DE=-1.76D-11 OVMax= 8.59D-07

 Cycle  12  Pass 1  IDiag  1:
 E= -262.686529813290     Delta-E=       -0.000000000002 Rises=F Damp=F
 DIIS: error= 7.09D-08 at cycle  12 NSaved=  12.
 NSaved=12 IEnMin=12 EnMin= -262.686529813290     IErMin=12 ErrMin= 7.09D-08
 ErrMax= 7.09D-08  0.00D+00 EMaxC= 1.00D-01 BMatC= 7.56D-14 BMatP= 3.36D-13
 IDIUse=1 WtCom= 1.00D+00 WtEn= 0.00D+00
 Coeff-Com:  0.270D-06-0.338D-05-0.149D-04-0.158D-04 0.256D-03 0.552D-03
 Coeff-Com: -0.302D-02 0.137D-01-0.358D-01-0.641D-01 0.144D+00 0.945D+00
 Coeff:      0.270D-06-0.338D-05-0.149D-04-0.158D-04 0.256D-03 0.552D-03
 Coeff:     -0.302D-02 0.137D-01-0.358D-01-0.641D-01 0.144D+00 0.945D+00
 Gap=     0.449 Goal=   None    Shift=    0.000
 RMSDP=5.12D-09 MaxDP=6.79D-08 DE=-1.82D-12 OVMax= 3.05D-07

 SCF Done:  E(RHF) =  -262.686529813     A.U. after   12 cycles
            NFock= 12  Conv=0.51D-08     -V/T= 2.0028
 KE= 2.619471491033D+02 PE=-1.028952255178D+03 EE= 2.962953786898D+02
 Leave Link  502 at Mon Jan  9 11:29:02 2017, MaxMem=   131072000 cpu:         3.4
 (Enter /mnt/software/gaussian/g09/l801.exe)
 ExpMin= 1.61D-01 ExpMax= 4.17D+03 ExpMxC= 6.27D+02 IAcc=3 IRadAn=         5 AccDes= 0.00D+00
 HarFok:  IExCor=  205 AccDes= 0.00D+00 IRadAn=         5 IDoV=-2 UseB2=F ITyADJ=14
 ICtDFT= 12500011 ScaDFX=  1.000000  1.000000  1.000000  1.000000
 Largest valence mixing into a core orbital is  2.01D-04
 Largest core mixing into a valence orbital is  4.15D-05
 Range of M.O.s used for correlation:     7   110
 NBasis=   110 NAE=    21 NBE=    21 NFC=     6 NFV=     0
 NROrb=    104 NOA=    15 NOB=    15 NVA=    89 NVB=    89
 Leave Link  801 at Mon Jan  9 11:29:02 2017, MaxMem=   131072000 cpu:         0.4
 (Enter /mnt/software/gaussian/g09/l906.exe)
 Frozen-core derivative calculation, NFC=   6 NFV=   0.
 FulOut=F Deriv=T AODrv=T NAtomX=    10
   MMem=           0  MDisk=          15 MDiskD=          15
  W3Min=      254100 MinDsk=      772315 NBas6D=         110
 NBas2D=        6279    NTT=        6105    LW2=     3300000
    MDV=   130905946 MDiskM=       16276 NBas2p=        6260
 Disk-based method using ON**2 memory for 15 occupieds at a time.
 Permanent disk used for amplitudes=     4315521 words.
 Estimated scratch disk usage=    39335800 words.
 IMap=   1   2   3   4   5   6   7   8   9  10  11  12  13  14  15  16  17  18  19  20
 IMap=  21
 Actual    scratch disk usage=    36237176 words.
 JobTyp=1 Pass  1:  I=   7 to  21 NPSUse=  4 ParTrn=T ParDer=T DoDerP=T.
 (rs|ai) integrals will be sorted in core.
 Spin components of T(2) and E(2):
     alpha-alpha T2 =       0.4190032803D-01 E2=     -0.1134968711D+00
     alpha-beta  T2 =       0.2159071408D+00 E2=     -0.6211453236D+00
     beta-beta   T2 =       0.4190032803D-01 E2=     -0.1134968711D+00
 The integrals were generated   1 times.
 ANorm=    0.1140047278D+01
 E2 =    -0.8481390659D+00 EUMP2 =    -0.26353466887920D+03
 Leave Link  906 at Mon Jan  9 11:29:19 2017, MaxMem=   131072000 cpu:        65.1
 (Enter /mnt/software/gaussian/g09/l1101.exe)
 Using compressed Sx but separate Hx and Fx, NAtomX=    10.
 Will process     11 centers per pass.
 Leave Link 1101 at Mon Jan  9 11:29:19 2017, MaxMem=   131072000 cpu:         0.5
 (Enter /mnt/software/gaussian/g09/l1102.exe)
 Leave Link 1102 at Mon Jan  9 11:29:19 2017, MaxMem=   131072000 cpu:         0.1
 (Enter /mnt/software/gaussian/g09/l1110.exe)
 Forming Gx(P) for the SCF density, NAtomX=    10.
 Integral derivatives from FoFJK, PRISM(SPDF).
 Do as many integral derivatives as possible in FoFJK.
 G2DrvN: MDV=     131071816.
 G2DrvN: will do    11 centers at a time, making    1 passes.
 Calling FoFCou, ICntrl=  3107 FMM=F I1Cent=   0 AccDes= 0.00D+00.
 FoFJK:  IHMeth= 1 ICntrl=    3107 DoSepK=F KAlg= 0 I1Cent=   0 FoldK=F
 IRaf=         0 NMat=   1 IRICut=       1 DoRegI=T DoRafI=F ISym2E= 1.
 FoFCou: FMM=F IPFlag=           0 FMFlag=      100000 FMFlg1=           0
         NFxFlg=           0 DoJE=F BraDBF=F KetDBF=F FulRan=T
         wScrn=  0.000000 ICntrl=    3107 IOpCl=  0 I1Cent=           0 NGrid=           0
         NMat0=    1 NMatS0=      1 NMatT0=    0 NMatD0=    1 NMtDS0=    0 NMtDT0=    0
 Petite list used in FoFCou.
 End of G2Drv F.D. properties file   721 does not exist.
 End of G2Drv F.D. properties file   722 does not exist.
 End of G2Drv F.D. properties file   788 does not exist.
 Leave Link 1110 at Mon Jan  9 11:29:20 2017, MaxMem=   131072000 cpu:         3.6
 (Enter /mnt/software/gaussian/g09/l1002.exe)
 Minotr:  Closed shell wavefunction.
          IDoAtm=1111111111
          Frozen-core window.
          Direct CPHF calculation.
          Differentiating once with respect to electric field.
                with respect to dipole field.
          Differentiating once with respect to nuclear coordinates.
          Requested convergence is 1.0D-08 RMS, and 1.0D-07 maximum.
          Secondary convergence is 1.0D-12 RMS, and 1.0D-12 maximum.
          NewPWx=T KeepS1=T KeepF1=T KeepIn=T MapXYZ=F SortEE=F KeepMc=T.
          MDV=     131071792 using IRadAn=       2.
 Keep R1 ints in memory in symmetry-blocked form, NReq=28546829.
 FoFCou: FMM=F IPFlag=           0 FMFlag=           0 FMFlg1=           0
         NFxFlg=           0 DoJE=F BraDBF=F KetDBF=F FulRan=T
         wScrn=  0.000000 ICntrl=     600 IOpCl=  0 I1Cent=           0 NGrid=           0
         NMat0=    1 NMatS0=   6105 NMatT0=    0 NMatD0=    1 NMtDS0=    0 NMtDT0=    0
 Petite list used in FoFCou.
          Solving linear equations simultaneously, MaxMat=       0.
          There are    33 degrees of freedom in the 1st order CPHF.  IDoFFX=6 NUNeed=    33.
     30 vectors produced by pass  0 Test12= 5.66D-15 3.03D-09 XBig12= 2.32D+01 2.71D+00.
 AX will form    30 AO Fock derivatives at one time.
     30 vectors produced by pass  1 Test12= 5.66D-15 3.03D-09 XBig12= 1.75D+00 3.35D-01.
     30 vectors produced by pass  2 Test12= 5.66D-15 3.03D-09 XBig12= 2.12D-02 5.46D-02.
     30 vectors produced by pass  3 Test12= 5.66D-15 3.03D-09 XBig12= 2.12D-04 2.51D-03.
     30 vectors produced by pass  4 Test12= 5.66D-15 3.03D-09 XBig12= 1.40D-06 2.56D-04.
     30 vectors produced by pass  5 Test12= 5.66D-15 3.03D-09 XBig12= 9.31D-09 2.06D-05.
     28 vectors produced by pass  6 Test12= 5.66D-15 3.03D-09 XBig12= 3.36D-11 1.10D-06.
      8 vectors produced by pass  7 Test12= 5.66D-15 3.03D-09 XBig12= 1.36D-13 6.60D-08.
      3 vectors produced by pass  8 Test12= 5.66D-15 3.03D-09 XBig12= 6.12D-16 5.77D-09.
 InvSVY:  IOpt=1 It=  1 EMax= 4.44D-15
 Solved reduced A of dimension   219 with    33 vectors.
 FullF1:  Do perturbations    1 to    33.
 Saving first derivative matrices.
 End of Minotr F.D. properties file   721 does not exist.
 End of Minotr F.D. properties file   722 does not exist.
 End of Minotr F.D. properties file   788 does not exist.
 Leave Link 1002 at Mon Jan  9 11:29:21 2017, MaxMem=   131072000 cpu:         6.8
 (Enter /mnt/software/gaussian/g09/l811.exe)
 MDV=   131072000.
 Form MO integral derivatives with frozen-active canonical formalism.
 MOERI=1 MOERIx=1 NAtoms=    10 NAtomX=    10.
 Discarding MO integrals.
 MO basis two electron integral derivatives will not be stored on disk.
 IAlg= 3 DoFC=T DoPWx=T Debug=F.
 Frozen-core window:  NFC=   6 NFV=   0.
 Reordered first order wavefunction length =      6986322
 In DefCFB: NBatch=  1 ICI= 21 ICA= 89 LFMax= 30
            Large arrays: LIAPS=    90459600 LIARS=    21586950 words.
 In StABat: MaxSiz= 15 MinSiz=  5 NAtomB=  8
 DoIAMN: NPSUse=  4.
 Leave Link  811 at Mon Jan  9 11:29:44 2017, MaxMem=   131072000 cpu:        90.7
 (Enter /mnt/software/gaussian/g09/l804.exe)
 Frozen-core window:  NFC=   6 NFV=   0.
 Closed-shell transformation, MDV=   131072000 ITran=4 ISComp=1.
 Semi-Direct transformation.
 ModeAB=           2 MOrb=            21 LenV=     130666866
 LASXX=     12049170 LTotXX=    12049170 LenRXX=    12049170
 LTotAB=    12388761 MaxLAS=    14102550 LenRXY=    14102550
 NonZer=    24098340 LenScr=    36914176 LnRSAI=           0
 LnScr1=           0 LExtra=           0 Total=     63065896
 MaxDsk=          -1 SrtSym=           F ITran=            4
 DoSDTr:  NPSUse=  4
 JobTyp=0 Pass  1:  I=   1 to  21.
 (rs|ai) integrals will be sorted in core.
 Complete sort for first half transformation.
 First half transformation complete.
 Begin second half transformation for I=  10.
 Begin second half transformation for I=  20.
 Begin second half transformation for I=  10.
 Begin second half transformation for I=  20.
 Complete sort for second half transformation.
 Second half transformation complete.
 Spin components of T(2) and E(2):
     alpha-alpha T2 =       0.4190032803D-01 E2=     -0.1134968711D+00
     alpha-beta  T2 =       0.2159071408D+00 E2=     -0.6211453236D+00
     beta-beta   T2 =       0.4190032803D-01 E2=     -0.1134968711D+00
 ANorm=    0.1612270323D+01
 E2 =    -0.8481390659D+00 EUMP2 =    -0.26353466887920D+03
 Leave Link  804 at Mon Jan  9 11:29:47 2017, MaxMem=   131072000 cpu:        13.1
 (Enter /mnt/software/gaussian/g09/l1002.exe)
 Minotr:  Closed shell wavefunction.
          Computing MP2/KS-MP2 derivatives.
          Using Z-Vector for PSCF gradient.
          Skipping F1 and S1 gradient terms here.
          IDoAtm=1111111111
          Frozen-core window.
          Using MO integrals in the linear equations.
          Forming densities via direct SCF.
          Differentiating once with respect to electric field.
                with respect to dipole field.
          Differentiating once with respect to nuclear coordinates.
          Using symmetry in CPHF.
          Requested convergence is 1.0D-10 RMS, and 1.0D-09 maximum.
          NewPWx=F KeepS1=T KeepF1=T KeepIn=T MapXYZ=F SortEE=F KeepMc=T.
          MDV=     131071792 using IRadAn=       0.
          Solving linear equations separately, MaxMat=       0.
          There are     1 degrees of freedom in the 1st order CPHF.  IDoFFX=0 NUNeed=     1.
 FoFJK:  IHMeth= 1 ICntrl=       0 DoSepK=F KAlg= 0 I1Cent=   0 FoldK=F
 IRaf= 980000000 NMat=   1 IRICut=       1 DoRegI=T DoRafI=F ISym2E=-1.
 FoFCou: FMM=F IPFlag=           0 FMFlag=      100000 FMFlg1=           0
         NFxFlg=           0 DoJE=F BraDBF=F KetDBF=F FulRan=T
         wScrn=  0.000000 ICntrl=       0 IOpCl=  0 I1Cent=           0 NGrid=           0
         NMat0=    1 NMatS0=      1 NMatT0=    0 NMatD0=    1 NMtDS0=    0 NMtDT0=    0
 Petite list used in FoFCou.
 LinEq1:  Iter=  0 NonCon=     1 RMS=5.04D-03 Max=9.43D-02 NDo=     1
 LinEq1:  Iter=  1 NonCon=     1 RMS=1.25D-03 Max=1.62D-02 NDo=     1
 LinEq1:  Iter=  2 NonCon=     1 RMS=2.95D-04 Max=3.41D-03 NDo=     1
 LinEq1:  Iter=  3 NonCon=     1 RMS=1.41D-04 Max=3.70D-03 NDo=     1
 LinEq1:  Iter=  4 NonCon=     1 RMS=4.21D-05 Max=4.85D-04 NDo=     1
 LinEq1:  Iter=  5 NonCon=     1 RMS=1.05D-05 Max=1.64D-04 NDo=     1
 LinEq1:  Iter=  6 NonCon=     1 RMS=1.45D-06 Max=2.28D-05 NDo=     1
 LinEq1:  Iter=  7 NonCon=     1 RMS=2.03D-07 Max=4.50D-06 NDo=     1
 LinEq1:  Iter=  8 NonCon=     1 RMS=1.06D-07 Max=3.81D-06 NDo=     1
 LinEq1:  Iter=  9 NonCon=     1 RMS=3.90D-08 Max=9.94D-07 NDo=     1
 LinEq1:  Iter= 10 NonCon=     1 RMS=7.19D-09 Max=9.08D-08 NDo=     1
 LinEq1:  Iter= 11 NonCon=     1 RMS=1.19D-09 Max=1.78D-08 NDo=     1
 LinEq1:  Iter= 12 NonCon=     1 RMS=4.80D-10 Max=1.15D-08 NDo=     1
 LinEq1:  Iter= 13 NonCon=     1 RMS=1.38D-10 Max=2.32D-09 NDo=     1
 LinEq1:  Iter= 14 NonCon=     0 RMS=1.52D-11 Max=1.69D-10 NDo=     1
 Linear equations converged to 1.000D-10 1.000D-09 after    14 iterations.
 End of Minotr F.D. properties file   721 does not exist.
 End of Minotr F.D. properties file   722 does not exist.
 End of Minotr F.D. properties file   788 does not exist.
 Leave Link 1002 at Mon Jan  9 11:29:48 2017, MaxMem=   131072000 cpu:         4.0
 (Enter /mnt/software/gaussian/g09/l1102.exe)
 Use density number 2.
 Symmetrizing basis deriv contribution to polar:
 IMax=3 JMax=2 DiffMx= 0.00D+00
 Leave Link 1102 at Mon Jan  9 11:29:49 2017, MaxMem=   131072000 cpu:         0.1
 (Enter /mnt/software/gaussian/g09/l1110.exe)
 Forming Gx(P) for generalized density number  2 NAtomX=    10.
 Integral derivatives from FoFJK, PRISM(SPDF).
 Do as many integral derivatives as possible in FoFJK.
 G2DrvN: MDV=     131071816.
 G2DrvN: will do    11 centers at a time, making    1 passes.
 Calling FoFCou, ICntrl=  3107 FMM=F I1Cent=   0 AccDes= 0.00D+00.
 FoFJK:  IHMeth= 1 ICntrl=    3107 DoSepK=F KAlg= 0 I1Cent=   0 FoldK=F
 IRaf=         0 NMat=   1 IRICut=       1 DoRegI=T DoRafI=F ISym2E= 1.
 FoFCou: FMM=F IPFlag=           0 FMFlag=      100000 FMFlg1=           0
         NFxFlg=           0 DoJE=F BraDBF=F KetDBF=F FulRan=T
         wScrn=  0.000000 ICntrl=    3107 IOpCl=  0 I1Cent=           0 NGrid=           0
         NMat0=    1 NMatS0=      1 NMatT0=    0 NMatD0=    1 NMtDS0=    0 NMtDT0=    0
 Petite list used in FoFCou.
 End of G2Drv F.D. properties file   721 does not exist.
 End of G2Drv F.D. properties file   722 does not exist.
 End of G2Drv F.D. properties file   788 does not exist.
 Leave Link 1110 at Mon Jan  9 11:29:49 2017, MaxMem=   131072000 cpu:         3.6
 (Enter /mnt/software/gaussian/g09/l1112.exe)
 MP22nd: MDV=     131072000
 This link is doing NAtomX=    10 total of    33 degrees of freedom.
 Using ON3 I/O method in MakUI.
 Frozen-core window:  NFC=   6 NFV=   0.
 Using Ix for Sx.
 Use MO integrals over full window.
 Using OV2 memory method for fx*t*t/D, MaxI=    21 DoOO2=F NP=   4.
 R2 and R3 integrals will be kept in memory, NReq=    38097130.
 FoFCou: FMM=F IPFlag=           0 FMFlag=           0 FMFlg1=           0
         NFxFlg=           0 DoJE=F BraDBF=F KetDBF=F FulRan=T
         wScrn=  0.000000 ICntrl=     600 IOpCl=  0 I1Cent=           0 NGrid=           0
         NMat0=    1 NMatS0=      1 NMatT0=    0 NMatD0=    1 NMtDS0=    0 NMtDT0=    0
 Symmetry not used in FoFCou.
 DD1Dir will call FoFMem   1 times, MxPair=       462
 NAB=   231 NAA=     0 NBB=     0.
 Symmetry is being used.
 FoFJK:  IHMeth= 1 ICntrl=       0 DoSepK=F KAlg= 0 I1Cent=   0 FoldK=F
 IRaf=         0 NMat=  33 IRICut=      82 DoRegI=T DoRafI=T ISym2E= 2.
 Discarding MO integrals.
 Leave Link 1112 at Mon Jan  9 11:30:09 2017, MaxMem=   131072000 cpu:        77.1
 (Enter /mnt/software/gaussian/g09/l601.exe)
 Copying SCF densities to generalized density rwf, IOpCl= 0 IROHF=0.

 **********************************************************************

            Population analysis using the SCF density.

 **********************************************************************

 Orbital symmetries:
       Occupied  (A') (A') (A') (A') (A') (A') (A') (A') (A') (A')
                 (A') (A') (A') (A') (A') (A") (A') (A') (A") (A')
                 (A")
       Virtual   (A") (A") (A') (A') (A') (A') (A") (A') (A') (A')
                 (A') (A') (A') (A') (A') (A") (A") (A') (A') (A")
                 (A') (A") (A') (A') (A') (A') (A') (A") (A') (A')
                 (A") (A') (A') (A') (A') (A') (A') (A') (A") (A")
                 (A') (A") (A") (A') (A") (A") (A') (A') (A') (A')
                 (A') (A') (A") (A') (A') (A') (A") (A") (A') (A')
                 (A") (A") (A") (A') (A') (A") (A') (A') (A') (A")
                 (A') (A") (A") (A') (A') (A') (A') (A') (A') (A')
                 (A') (A') (A') (A') (A') (A') (A') (A') (A')
 The electronic state is 1-A'.
 Alpha  occ. eigenvalues --  -15.59938 -15.59936 -11.28722 -11.28714 -11.28604
 Alpha  occ. eigenvalues --  -11.28596  -1.30127  -1.21401  -1.05101  -0.90024
 Alpha  occ. eigenvalues --   -0.88365  -0.72299  -0.69758  -0.67596  -0.60835
 Alpha  occ. eigenvalues --   -0.56781  -0.54695  -0.49638  -0.42899  -0.40984
 Alpha  occ. eigenvalues --   -0.35705
 Alpha virt. eigenvalues --    0.09159   0.12552   0.25597   0.27779   0.30233
 Alpha virt. eigenvalues --    0.31505   0.33470   0.34518   0.46641   0.49272
 Alpha virt. eigenvalues --    0.49891   0.61237   0.68371   0.70860   0.72224
 Alpha virt. eigenvalues --    0.73310   0.79261   0.81556   0.82338   0.83955
 Alpha virt. eigenvalues --    0.85336   0.88111   0.90787   0.95132   1.04560
 Alpha virt. eigenvalues --    1.05528   1.06517   1.06703   1.07163   1.08575
 Alpha virt. eigenvalues --    1.13510   1.15084   1.20568   1.23338   1.26684
 Alpha virt. eigenvalues --    1.33914   1.35443   1.47889   1.49098   1.54434
 Alpha virt. eigenvalues --    1.54528   1.66814   1.70911   1.72745   1.73578
 Alpha virt. eigenvalues --    1.74078   1.92351   1.99792   2.06744   2.09213
 Alpha virt. eigenvalues --    2.12031   2.22911   2.23902   2.25865   2.36959
 Alpha virt. eigenvalues --    2.37694   2.39363   2.45049   2.45606   2.58548
 Alpha virt. eigenvalues --    2.65671   2.66825   2.69691   2.72086   2.73106
 Alpha virt. eigenvalues --    2.77777   2.79041   2.81486   2.82763   2.89275
 Alpha virt. eigenvalues --    2.99774   3.00690   3.05154   3.05435   3.22124
 Alpha virt. eigenvalues --    3.27105   3.33020   3.58105   3.58986   3.60218
 Alpha virt. eigenvalues --    3.67109   3.90470   4.15843   4.29306   4.52612
 Alpha virt. eigenvalues --    4.60811   4.70773   4.85210   4.98738
     Molecular Orbital Coefficients:
                           1         2         3         4         5
                           O         O         O         O         O
     Eigenvalues --   -15.59938 -15.59936 -11.28722 -11.28714 -11.28604
   1 1   C  1S          0.00001   0.00001  -0.19105   0.67723  -0.04233
   2        2S          0.00024   0.00016  -0.00542   0.01838  -0.00086
   3        2PX         0.00001  -0.00007  -0.00013   0.00002   0.00000
   4        2PY         0.00007   0.00004  -0.00005   0.00047  -0.00004
   5        2PZ         0.00000   0.00000   0.00000   0.00000   0.00000
   6        3S          0.00420  -0.00044   0.00110  -0.00378  -0.00206
   7        3PX         0.00202  -0.00036   0.00084   0.00019  -0.00238
   8        3PY         0.00165  -0.00006   0.00028   0.00017  -0.00037
   9        3PZ         0.00000   0.00000   0.00000   0.00000   0.00000
  10        4XX         0.00002  -0.00007   0.00041  -0.00139  -0.00002
  11        4YY        -0.00050  -0.00020   0.00047  -0.00113  -0.00010
  12        4ZZ        -0.00007  -0.00004   0.00042  -0.00175   0.00017
  13        4XY         0.00002   0.00000   0.00006   0.00002  -0.00002
  14        4XZ         0.00000   0.00000   0.00000   0.00000   0.00000
  15        4YZ         0.00000   0.00000   0.00000   0.00000   0.00000
  16 2   C  1S          0.00000   0.00002  -0.19117   0.67759   0.04243
  17        2S         -0.00008   0.00028  -0.00542   0.01840   0.00086
  18        2PX         0.00000   0.00009   0.00001   0.00041   0.00003
  19        2PY        -0.00006  -0.00002  -0.00014   0.00023   0.00001
  20        2PZ         0.00000   0.00000   0.00000   0.00000   0.00000
  21        3S         -0.00353   0.00231   0.00108  -0.00379   0.00206
  22        3PX        -0.00037   0.00044  -0.00012   0.00007  -0.00074
  23        3PY        -0.00220   0.00134   0.00085   0.00024   0.00230
  24        3PZ         0.00000   0.00000   0.00000   0.00000   0.00000
  25        4XX         0.00021  -0.00039   0.00041  -0.00120   0.00007
  26        4YY        -0.00001  -0.00013   0.00046  -0.00132   0.00005
  27        4ZZ         0.00003  -0.00008   0.00042  -0.00175  -0.00017
  28        4XY         0.00014  -0.00019   0.00006   0.00013   0.00005
  29        4XZ         0.00000   0.00000   0.00000   0.00000   0.00000
  30        4YZ         0.00000   0.00000   0.00000   0.00000   0.00000
  31 3   N  1S          0.89907   0.42686  -0.00014  -0.00025   0.00020
  32        2S          0.02253   0.01043   0.00012   0.00021  -0.00040
  33        2PX         0.00156   0.00070   0.00002  -0.00001  -0.00001
  34        2PY        -0.00095  -0.00043   0.00004  -0.00002  -0.00006
  35        2PZ         0.00000   0.00000   0.00000   0.00000   0.00000
  36        3S         -0.00676  -0.00039  -0.00009  -0.00015   0.00130
  37        3PX        -0.00253  -0.00039  -0.00058  -0.00037   0.00117
  38        3PY         0.00155   0.00024  -0.00027   0.00057   0.00030
  39        3PZ         0.00000   0.00000   0.00000   0.00000   0.00000
  40        4XX        -0.00240  -0.00128  -0.00018  -0.00019   0.00039
  41        4YY        -0.00232  -0.00125  -0.00013  -0.00036   0.00025
  42        4ZZ        -0.00279  -0.00150   0.00008   0.00015  -0.00022
  43        4XY         0.00009   0.00004  -0.00010  -0.00010   0.00016
  44        4XZ         0.00000   0.00000   0.00000   0.00000   0.00000
  45        4YZ         0.00000   0.00000   0.00000   0.00000   0.00000
  46 4   N  1S         -0.42698   0.89901  -0.00014  -0.00025  -0.00020
  47        2S         -0.01087   0.02232   0.00011   0.00021   0.00040
  48        2PX         0.00076  -0.00153   0.00002  -0.00002   0.00005
  49        2PY        -0.00047   0.00094   0.00004  -0.00002   0.00004
  50        2PZ         0.00000   0.00000   0.00000   0.00000   0.00000
  51        3S          0.00499  -0.00458  -0.00008  -0.00015  -0.00131
  52        3PX        -0.00171   0.00190   0.00002   0.00068   0.00026
  53        3PY         0.00105  -0.00117  -0.00063  -0.00007  -0.00119
  54        3PZ         0.00000   0.00000   0.00000   0.00000   0.00000
  55        4XX         0.00105  -0.00251  -0.00007  -0.00026  -0.00017
  56        4YY         0.00101  -0.00243  -0.00024  -0.00030  -0.00048
  57        4ZZ         0.00121  -0.00292   0.00008   0.00015   0.00023
  58        4XY        -0.00005   0.00009  -0.00003  -0.00014  -0.00003
  59        4XZ         0.00000   0.00000   0.00000   0.00000   0.00000
  60        4YZ         0.00000   0.00000   0.00000   0.00000   0.00000
  61 5   C  1S          0.00000   0.00002   0.67422   0.19011   0.70626
  62        2S         -0.00008   0.00028   0.01843   0.00497   0.01937
  63        2PX         0.00005   0.00005  -0.00008   0.00010  -0.00022
  64        2PY         0.00003  -0.00007  -0.00043  -0.00020  -0.00034
  65        2PZ         0.00000   0.00000   0.00000   0.00000   0.00000
  66        3S         -0.00354   0.00232  -0.00375  -0.00103  -0.00944
  67        3PX         0.00179  -0.00100   0.00026  -0.00081   0.00198
  68        3PY         0.00132  -0.00100   0.00001  -0.00033  -0.00229
  69        3PZ         0.00000   0.00000   0.00000   0.00000   0.00000
  70        4XX        -0.00006  -0.00005  -0.00139  -0.00038  -0.00076
  71        4YY         0.00027  -0.00047  -0.00120  -0.00019  -0.00060
  72        4ZZ         0.00003  -0.00008  -0.00171  -0.00055  -0.00166
  73        4XY        -0.00002   0.00001  -0.00001   0.00006  -0.00013
  74        4XZ         0.00000   0.00000   0.00000   0.00000   0.00000
  75        4YZ         0.00000   0.00000   0.00000   0.00000   0.00000
  76 6   C  1S          0.00001   0.00001   0.68061   0.19203  -0.69961
  77        2S          0.00024   0.00016   0.01860   0.00502  -0.01919
  78        2PX        -0.00006  -0.00006  -0.00034  -0.00022   0.00020
  79        2PY        -0.00003   0.00005  -0.00027   0.00000   0.00034
  80        2PZ         0.00000   0.00000   0.00000   0.00000   0.00000
  81        3S          0.00420  -0.00044  -0.00384  -0.00106   0.00940
  82        3PX        -0.00056  -0.00011  -0.00014   0.00006   0.00293
  83        3PY        -0.00255   0.00035   0.00025  -0.00086  -0.00073
  84        3PZ         0.00000   0.00000   0.00000   0.00000   0.00000
  85        4XX        -0.00041  -0.00017  -0.00124  -0.00028   0.00053
  86        4YY        -0.00008  -0.00010  -0.00137  -0.00030   0.00081
  87        4ZZ        -0.00007  -0.00004  -0.00172  -0.00056   0.00164
  88        4XY        -0.00023  -0.00006   0.00008   0.00012   0.00001
  89        4XZ         0.00000   0.00000   0.00000   0.00000   0.00000
  90        4YZ         0.00000   0.00000   0.00000   0.00000   0.00000
  91 7   H  1S         -0.00004   0.00001  -0.00026   0.00001  -0.00014
  92        2S         -0.00046   0.00028   0.00090   0.00071   0.00123
  93        3PX        -0.00001  -0.00002   0.00003   0.00002   0.00017
  94        3PY        -0.00005   0.00006   0.00010   0.00003   0.00019
  95        3PZ         0.00000   0.00000   0.00000   0.00000   0.00000
  96 8   H  1S          0.00003  -0.00002  -0.00026   0.00001   0.00014
  97        2S          0.00054  -0.00008   0.00091   0.00072  -0.00122
  98        3PX         0.00007   0.00002   0.00008   0.00002  -0.00010
  99        3PY         0.00003  -0.00001   0.00007   0.00003  -0.00024
 100        3PZ         0.00000   0.00000   0.00000   0.00000   0.00000
 101 9   H  1S         -0.00004   0.00001   0.00014  -0.00021   0.00009
 102        2S         -0.00046   0.00028   0.00013   0.00115   0.00084
 103        3PX         0.00004  -0.00006   0.00002  -0.00008   0.00003
 104        3PY         0.00003  -0.00001   0.00001  -0.00008  -0.00003
 105        3PZ         0.00000   0.00000   0.00000   0.00000   0.00000
 106 10  H  1S          0.00003  -0.00002   0.00014  -0.00021  -0.00009
 107        2S          0.00053  -0.00008   0.00014   0.00115  -0.00084
 108        3PX         0.00000   0.00002   0.00000  -0.00004   0.00004
 109        3PY        -0.00008  -0.00001   0.00003  -0.00010  -0.00001
 110        3PZ         0.00000   0.00000   0.00000   0.00000   0.00000
                           6         7         8         9        10
                           O         O         O         O         O
     Eigenvalues --   -11.28596  -1.30127  -1.21401  -1.05101  -0.90024
   1 1   C  1S          0.70314  -0.07737  -0.05682  -0.11141   0.07048
   2        2S          0.01932   0.14860   0.10975   0.22068  -0.14106
   3        2PX         0.00022   0.04152  -0.01768   0.04578  -0.07240
   4        2PY         0.00033   0.06109   0.10296  -0.02941   0.17769
   5        2PZ         0.00000   0.00000   0.00000   0.00000   0.00000
   6        3S         -0.00975   0.05496   0.01948   0.14721  -0.13073
   7        3PX        -0.00228   0.00438  -0.01749   0.01102  -0.01174
   8        3PY         0.00225  -0.00616  -0.02559  -0.01211   0.03542
   9        3PZ         0.00000   0.00000   0.00000   0.00000   0.00000
  10        4XX        -0.00076  -0.00001  -0.00945   0.00669  -0.01312
  11        4YY        -0.00061   0.01291   0.01704   0.00336   0.01096
  12        4ZZ        -0.00164  -0.00836  -0.00635  -0.00933   0.00444
  13        4XY        -0.00014  -0.00078   0.00414  -0.00803   0.00669
  14        4XZ         0.00000   0.00000   0.00000   0.00000   0.00000
  15        4YZ         0.00000   0.00000   0.00000   0.00000   0.00000
  16 2   C  1S         -0.70275  -0.07740   0.05672  -0.11145   0.07070
  17        2S         -0.01931   0.14864  -0.10956   0.22076  -0.14149
  18        2PX        -0.00020   0.03581  -0.09983  -0.04685   0.19096
  19        2PY        -0.00035   0.06464  -0.03064   0.02757   0.01572
  20        2PZ         0.00000   0.00000   0.00000   0.00000   0.00000
  21        3S          0.00975   0.05497  -0.01940   0.14725  -0.13109
  22        3PX        -0.00304  -0.00749   0.01493  -0.01578   0.03694
  23        3PY         0.00102   0.00112   0.02715   0.00435   0.00558
  24        3PZ         0.00000   0.00000   0.00000   0.00000   0.00000
  25        4XX         0.00055   0.01083  -0.00874   0.00964   0.00137
  26        4YY         0.00082   0.00207   0.00116   0.00040  -0.00355
  27        4ZZ         0.00164  -0.00836   0.00634  -0.00934   0.00446
  28        4XY         0.00001   0.00555  -0.01478  -0.00630   0.01514
  29        4XZ         0.00000   0.00000   0.00000   0.00000   0.00000
  30        4YZ         0.00000   0.00000   0.00000   0.00000   0.00000
  31 3   N  1S         -0.00018  -0.11150  -0.13554   0.00007  -0.08417
  32        2S          0.00035   0.23032   0.27639  -0.00016   0.18490
  33        2PX        -0.00005   0.07233   0.06504  -0.07028  -0.01049
  34        2PY        -0.00004  -0.04429  -0.03973  -0.11430   0.00606
  35        2PZ         0.00000   0.00000   0.00000   0.00000   0.00000
  36        3S         -0.00115   0.21904   0.33080  -0.00015   0.21988
  37        3PX        -0.00012   0.03415   0.04687  -0.02568  -0.00550
  38        3PY         0.00123  -0.02099  -0.02876  -0.04182   0.00315
  39        3PZ         0.00000   0.00000   0.00000   0.00000   0.00000
  40        4XX        -0.00012   0.00546   0.00252  -0.01243  -0.00226
  41        4YY        -0.00045   0.00573   0.00498   0.01246   0.00090
  42        4ZZ         0.00020  -0.00885  -0.01129   0.00000  -0.00243
  43        4XY        -0.00001   0.00033   0.00285  -0.00727   0.00354
  44        4XZ         0.00000   0.00000   0.00000   0.00000   0.00000
  45        4YZ         0.00000   0.00000   0.00000   0.00000   0.00000
  46 4   N  1S          0.00018  -0.11159   0.13547   0.00003  -0.08416
  47        2S         -0.00035   0.23050  -0.27624  -0.00007   0.18489
  48        2PX         0.00002  -0.07219   0.06472  -0.07031   0.01045
  49        2PY         0.00007   0.04462  -0.04015  -0.11436  -0.00613
  50        2PZ         0.00000   0.00000   0.00000   0.00000   0.00000
  51        3S          0.00115   0.21926  -0.33066  -0.00002   0.21986
  52        3PX        -0.00115  -0.03417   0.04679  -0.02575   0.00543
  53        3PY        -0.00045   0.02103  -0.02884  -0.04180  -0.00328
  54        3PZ         0.00000   0.00000   0.00000   0.00000   0.00000
  55        4XX         0.00038   0.00544  -0.00248   0.01246  -0.00225
  56        4YY         0.00019   0.00575  -0.00501  -0.01243   0.00089
  57        4ZZ        -0.00020  -0.00886   0.01128  -0.00001  -0.00243
  58        4XY         0.00016   0.00032  -0.00283   0.00727   0.00354
  59        4XZ         0.00000   0.00000   0.00000   0.00000   0.00000
  60        4YZ         0.00000   0.00000   0.00000   0.00000   0.00000
  61 5   C  1S          0.04265  -0.07757   0.05697   0.11116   0.07067
  62        2S          0.00148   0.14898  -0.11007  -0.22021  -0.14144
  63        2PX        -0.00003  -0.04151  -0.01776   0.04542   0.07241
  64        2PY         0.00000  -0.06138   0.10328  -0.02908  -0.17812
  65        2PZ         0.00000   0.00000   0.00000   0.00000   0.00000
  66        3S         -0.00321   0.05509  -0.01952  -0.14684  -0.13107
  67        3PX         0.00263  -0.00434  -0.01759   0.01101   0.01178
  68        3PY         0.00010   0.00622  -0.02570  -0.01211  -0.03558
  69        3PZ         0.00000   0.00000   0.00000   0.00000   0.00000
  70        4XX        -0.00011  -0.00004   0.00950  -0.00665  -0.01317
  71        4YY        -0.00017   0.01293  -0.01704  -0.00339   0.01093
  72        4ZZ        -0.00003  -0.00839   0.00636   0.00932   0.00445
  73        4XY        -0.00004  -0.00079  -0.00415   0.00802   0.00669
  74        4XZ         0.00000   0.00000   0.00000   0.00000   0.00000
  75        4YZ         0.00000   0.00000   0.00000   0.00000   0.00000
  76 6   C  1S         -0.04227  -0.07751  -0.05698   0.11117   0.07088
  77        2S         -0.00147   0.14887   0.11008  -0.22022  -0.14187
  78        2PX        -0.00001  -0.03594  -0.10017  -0.04644  -0.19132
  79        2PY         0.00003  -0.06471  -0.03077   0.02741  -0.01585
  80        2PZ         0.00000   0.00000   0.00000   0.00000   0.00000
  81        3S          0.00321   0.05510   0.01954  -0.14685  -0.13143
  82        3PX         0.00110   0.00749   0.01499  -0.01576  -0.03710
  83        3PY        -0.00239  -0.00111   0.02728   0.00435  -0.00558
  84        3PZ         0.00000   0.00000   0.00000   0.00000   0.00000
  85        4XX         0.00013   0.01084   0.00875  -0.00965   0.00135
  86        4YY         0.00015   0.00206  -0.00119  -0.00040  -0.00359
  87        4ZZ         0.00002  -0.00838  -0.00636   0.00932   0.00448
  88        4XY         0.00005   0.00555   0.01481   0.00626   0.01516
  89        4XZ         0.00000   0.00000   0.00000   0.00000   0.00000
  90        4YZ         0.00000   0.00000   0.00000   0.00000   0.00000
  91 7   H  1S         -0.00011   0.02358  -0.02210  -0.06686  -0.06571
  92        2S         -0.00070   0.00127   0.00329  -0.01756  -0.02511
  93        3PX        -0.00002  -0.00238   0.00223   0.00625   0.00602
  94        3PY         0.00003  -0.00200   0.00263   0.00249   0.00061
  95        3PZ         0.00000   0.00000   0.00000   0.00000   0.00000
  96 8   H  1S          0.00011   0.02357   0.02211  -0.06686  -0.06588
  97        2S          0.00070   0.00129  -0.00328  -0.01756  -0.02517
  98        3PX        -0.00004  -0.00071  -0.00134  -0.00060  -0.00217
  99        3PY         0.00001  -0.00303  -0.00318   0.00670   0.00566
 100        3PZ         0.00000   0.00000   0.00000   0.00000   0.00000
 101 9   H  1S          0.00015   0.02354  -0.02203   0.06700  -0.06561
 102        2S         -0.00113   0.00130   0.00323   0.01758  -0.02504
 103        3PX         0.00010   0.00071  -0.00134  -0.00061   0.00218
 104        3PY         0.00023   0.00302  -0.00317   0.00671  -0.00564
 105        3PZ         0.00000   0.00000   0.00000   0.00000   0.00000
 106 10  H  1S         -0.00015   0.02353   0.02207   0.06696  -0.06538
 107        2S          0.00113   0.00130  -0.00323   0.01758  -0.02496
 108        3PX        -0.00016   0.00238   0.00222   0.00626  -0.00600
 109        3PY        -0.00020   0.00199   0.00263   0.00248  -0.00059
 110        3PZ         0.00000   0.00000   0.00000   0.00000   0.00000
                          11        12        13        14        15
                           O         O         O         O         O
     Eigenvalues --    -0.88365  -0.72299  -0.69758  -0.67596  -0.60835
   1 1   C  1S         -0.08565  -0.00519   0.00593  -0.05266  -0.01674
   2        2S          0.17364   0.00820  -0.00828   0.10634   0.03798
   3        2PX        -0.09067  -0.21410  -0.12815  -0.15198   0.25217
   4        2PY         0.08069  -0.04918   0.23818  -0.10963   0.07677
   5        2PZ         0.00000   0.00000   0.00000   0.00000   0.00000
   6        3S          0.15507   0.02992  -0.02647   0.13163   0.02133
   7        3PX        -0.01022  -0.07975  -0.03212  -0.07412   0.10561
   8        3PY        -0.02188  -0.02409   0.06430  -0.06343   0.03789
   9        3PZ         0.00000   0.00000   0.00000   0.00000   0.00000
  10        4XX        -0.00355  -0.00152  -0.01071   0.01240  -0.00143
  11        4YY         0.00876   0.00128   0.01141  -0.01276  -0.00114
  12        4ZZ        -0.00787   0.00047  -0.00168  -0.00271  -0.00057
  13        4XY         0.00151   0.00120   0.00329   0.00890  -0.01427
  14        4XZ         0.00000   0.00000   0.00000   0.00000   0.00000
  15        4YZ         0.00000   0.00000   0.00000   0.00000   0.00000
  16 2   C  1S          0.08547  -0.00521   0.00591   0.05265  -0.01672
  17        2S         -0.17328   0.00825  -0.00824  -0.10632   0.03794
  18        2PX        -0.11344   0.05275   0.27040   0.02938  -0.04528
  19        2PY         0.04442  -0.21334  -0.00685   0.18502   0.25976
  20        2PZ         0.00000   0.00000   0.00000   0.00000   0.00000
  21        3S         -0.15472   0.02999  -0.02644  -0.13160   0.02127
  22        3PX         0.01481   0.01449   0.07188   0.02319  -0.01383
  23        3PY         0.01898  -0.08207   0.00035   0.09474   0.11137
  24        3PZ         0.00000   0.00000   0.00000   0.00000   0.00000
  25        4XX        -0.00521  -0.00014   0.00460   0.01385   0.00877
  26        4YY         0.00000  -0.00011  -0.00391  -0.01348  -0.01134
  27        4ZZ         0.00786   0.00047  -0.00168   0.00271  -0.00057
  28        4XY        -0.00666   0.00201   0.01224   0.00643  -0.00833
  29        4XZ         0.00000   0.00000   0.00000   0.00000   0.00000
  30        4YZ         0.00000   0.00000   0.00000   0.00000   0.00000
  31 3   N  1S          0.00001  -0.03263  -0.00007   0.03964  -0.00007
  32        2S         -0.00003   0.07385   0.00016  -0.09130   0.00013
  33        2PX        -0.12510  -0.14481  -0.15089  -0.05102  -0.04325
  34        2PY        -0.20346   0.08915  -0.24525   0.03124  -0.06981
  35        2PZ         0.00000   0.00000   0.00000   0.00000   0.00000
  36        3S          0.00010   0.11658   0.00037  -0.09389   0.00035
  37        3PX        -0.05581  -0.07089  -0.06666  -0.01348  -0.02577
  38        3PY        -0.09092   0.04364  -0.10840   0.00826  -0.04171
  39        3PZ         0.00000   0.00000   0.00000   0.00000   0.00000
  40        4XX        -0.01584  -0.00983  -0.01391  -0.00273  -0.01191
  41        4YY         0.01586   0.00331   0.01392   0.00430   0.01191
  42        4ZZ        -0.00001   0.00360   0.00000   0.00131   0.00000
  43        4XY        -0.00926   0.01500  -0.00813   0.00799  -0.00694
  44        4XZ         0.00000   0.00000   0.00000   0.00000   0.00000
  45        4YZ         0.00000   0.00000   0.00000   0.00000   0.00000
  46 4   N  1S          0.00020  -0.03262  -0.00006  -0.03963  -0.00009
  47        2S         -0.00043   0.07383   0.00013   0.09129   0.00019
  48        2PX         0.12508   0.14499  -0.15074  -0.05097  -0.04271
  49        2PY         0.20352  -0.08900  -0.24543   0.03124  -0.07026
  50        2PZ         0.00000   0.00000   0.00000   0.00000   0.00000
  51        3S         -0.00067   0.11656   0.00039   0.09385   0.00046
  52        3PX         0.05594   0.07097  -0.06665  -0.01348  -0.02555
  53        3PY         0.09085  -0.04357  -0.10842   0.00821  -0.04191
  54        3PZ         0.00000   0.00000   0.00000   0.00000   0.00000
  55        4XX        -0.01586  -0.00983   0.01392   0.00271   0.01190
  56        4YY         0.01583   0.00332  -0.01391  -0.00428  -0.01191
  57        4ZZ         0.00001   0.00360   0.00000  -0.00131   0.00000
  58        4XY        -0.00926   0.01501   0.00813  -0.00799   0.00698
  59        4XZ         0.00000   0.00000   0.00000   0.00000   0.00000
  60        4YZ         0.00000   0.00000   0.00000   0.00000   0.00000
  61 5   C  1S         -0.08555  -0.00517  -0.00585   0.05268   0.01677
  62        2S          0.17344   0.00816   0.00809  -0.10636  -0.03806
  63        2PX         0.09058   0.21426  -0.12792  -0.15204   0.25198
  64        2PY        -0.08060   0.04908   0.23816  -0.10998   0.07695
  65        2PZ         0.00000   0.00000   0.00000   0.00000   0.00000
  66        3S          0.15499   0.02986   0.02650  -0.13180  -0.02143
  67        3PX         0.01005   0.07981  -0.03205  -0.07407   0.10562
  68        3PY         0.02191   0.02410   0.06430  -0.06363   0.03795
  69        3PZ         0.00000   0.00000   0.00000   0.00000   0.00000
  70        4XX        -0.00357  -0.00154   0.01074  -0.01240   0.00142
  71        4YY         0.00873   0.00129  -0.01137   0.01275   0.00114
  72        4ZZ        -0.00786   0.00047   0.00168   0.00271   0.00057
  73        4XY         0.00150   0.00121  -0.00325  -0.00892   0.01427
  74        4XZ         0.00000   0.00000   0.00000   0.00000   0.00000
  75        4YZ         0.00000   0.00000   0.00000   0.00000   0.00000
  76 6   C  1S          0.08540  -0.00515  -0.00581  -0.05269   0.01677
  77        2S         -0.17315   0.00812   0.00802   0.10639  -0.03807
  78        2PX         0.11322  -0.05292   0.27020   0.02962  -0.04514
  79        2PY        -0.04441   0.21328  -0.00685   0.18541   0.25947
  80        2PZ         0.00000   0.00000   0.00000   0.00000   0.00000
  81        3S         -0.15474   0.02978   0.02639   0.13184  -0.02146
  82        3PX        -0.01492  -0.01452   0.07182   0.02337  -0.01382
  83        3PY        -0.01884   0.08209   0.00033   0.09485   0.11132
  84        3PZ         0.00000   0.00000   0.00000   0.00000   0.00000
  85        4XX        -0.00519  -0.00013  -0.00459  -0.01386  -0.00875
  86        4YY         0.00002  -0.00012   0.00395   0.01351   0.01131
  87        4ZZ         0.00785   0.00047   0.00168  -0.00271   0.00057
  88        4XY        -0.00664   0.00203  -0.01221  -0.00642   0.00833
  89        4XZ         0.00000   0.00000   0.00000   0.00000   0.00000
  90        4YZ         0.00000   0.00000   0.00000   0.00000   0.00000
  91 7   H  1S          0.08806   0.11716   0.00575  -0.16249   0.14513
  92        2S          0.03306   0.06535   0.00256  -0.09360   0.10861
  93        3PX        -0.00622  -0.00626  -0.00181   0.00864  -0.00604
  94        3PY        -0.00437  -0.00353   0.00228   0.00411  -0.00327
  95        3PZ         0.00000   0.00000   0.00000   0.00000   0.00000
  96 8   H  1S         -0.08793   0.11711   0.00557   0.16257   0.14504
  97        2S         -0.03301   0.06532   0.00246   0.09364   0.10855
  98        3PX         0.00109  -0.00032   0.00285   0.00024  -0.00019
  99        3PY         0.00751  -0.00718  -0.00057  -0.00957  -0.00686
 100        3PZ         0.00000   0.00000   0.00000   0.00000   0.00000
 101 9   H  1S         -0.08804   0.11724  -0.00555  -0.16230  -0.14530
 102        2S         -0.03302   0.06538  -0.00243  -0.09344  -0.10873
 103        3PX        -0.00109   0.00032   0.00285   0.00025  -0.00019
 104        3PY        -0.00752   0.00719  -0.00058  -0.00955  -0.00688
 105        3PZ         0.00000   0.00000   0.00000   0.00000   0.00000
 106 10  H  1S          0.08822   0.11716  -0.00556   0.16235  -0.14522
 107        2S          0.03310   0.06534  -0.00244   0.09348  -0.10867
 108        3PX         0.00624   0.00627  -0.00180   0.00864  -0.00605
 109        3PY         0.00437   0.00352   0.00228   0.00409  -0.00327
 110        3PZ         0.00000   0.00000   0.00000   0.00000   0.00000
                          16        17        18        19        20
                           O         O         O         O         O
     Eigenvalues --    -0.56781  -0.54695  -0.49638  -0.42899  -0.40984
   1 1   C  1S          0.00000   0.00774  -0.03815   0.00000   0.00083
   2        2S          0.00000  -0.01314   0.08476   0.00000  -0.00543
   3        2PX         0.00000   0.11459   0.03091   0.00000   0.16162
   4        2PY         0.00000   0.19669   0.06686   0.00000  -0.13545
   5        2PZ         0.20207   0.00000   0.00000   0.15047   0.00000
   6        3S          0.00000  -0.03160   0.10005   0.00000   0.04423
   7        3PX         0.00000   0.08360   0.03085   0.00000   0.05913
   8        3PY         0.00000   0.09796  -0.03762   0.00000  -0.03605
   9        3PZ         0.12236   0.00000   0.00000   0.11812   0.00000
  10        4XX         0.00000  -0.01796  -0.00300   0.00000   0.00146
  11        4YY         0.00000   0.01614   0.00546   0.00000  -0.00443
  12        4ZZ         0.00000  -0.00104  -0.00249   0.00000   0.00223
  13        4XY         0.00000  -0.01589   0.01755   0.00000  -0.02503
  14        4XZ         0.01097   0.00000   0.00000  -0.00319   0.00000
  15        4YZ         0.00980   0.00000   0.00000   0.02217   0.00000
  16 2   C  1S          0.00000  -0.00775   0.03816   0.00000   0.00084
  17        2S          0.00000   0.01317  -0.08477   0.00000  -0.00545
  18        2PX         0.00000  -0.12365  -0.04566   0.00000  -0.19385
  19        2PY         0.00000  -0.19092  -0.05784   0.00000   0.08304
  20        2PZ         0.20210   0.00000   0.00000  -0.15022   0.00000
  21        3S          0.00000   0.03159  -0.10007   0.00000   0.04419
  22        3PX         0.00000  -0.04964   0.04751   0.00000  -0.05887
  23        3PY         0.00000  -0.11876  -0.01059   0.00000   0.03644
  24        3PZ         0.12237   0.00000   0.00000  -0.11793   0.00000
  25        4XX         0.00000  -0.02027   0.00850   0.00000   0.01424
  26        4YY         0.00000   0.02210  -0.01096   0.00000  -0.01721
  27        4ZZ         0.00000   0.00104   0.00249   0.00000   0.00223
  28        4XY         0.00000  -0.00644  -0.01433   0.00000  -0.01757
  29        4XZ         0.00379   0.00000   0.00000  -0.02123   0.00000
  30        4YZ         0.01422   0.00000   0.00000  -0.00715   0.00000
  31 3   N  1S          0.00000  -0.00019   0.05680   0.00000  -0.04470
  32        2S          0.00000   0.00042  -0.13172   0.00000   0.09775
  33        2PX         0.00000  -0.12981   0.33874   0.00000  -0.29673
  34        2PY         0.00000  -0.20943  -0.20897   0.00000   0.18244
  35        2PZ         0.24518   0.00000   0.00000   0.34194   0.00000
  36        3S          0.00000   0.00079  -0.18763   0.00000   0.20217
  37        3PX         0.00000  -0.06912   0.24473   0.00000  -0.24040
  38        3PY         0.00000  -0.11139  -0.15085   0.00000   0.14783
  39        3PZ         0.16181   0.00000   0.00000   0.26486   0.00000
  40        4XX         0.00000  -0.01524   0.01543   0.00000  -0.01180
  41        4YY         0.00000   0.01520   0.00375   0.00000  -0.00773
  42        4ZZ         0.00000   0.00002  -0.00929   0.00000   0.00795
  43        4XY         0.00000  -0.00885  -0.01342   0.00000   0.00466
  44        4XZ         0.01914   0.00000   0.00000   0.02143   0.00000
  45        4YZ        -0.01173   0.00000   0.00000  -0.01312   0.00000
  46 4   N  1S          0.00000   0.00021  -0.05678   0.00000  -0.04470
  47        2S          0.00000  -0.00046   0.13168   0.00000   0.09776
  48        2PX         0.00000   0.12810   0.33934   0.00000   0.29682
  49        2PY         0.00000   0.21027  -0.20790   0.00000  -0.18243
  50        2PZ         0.24529   0.00000   0.00000  -0.34187   0.00000
  51        3S          0.00000  -0.00092   0.18755   0.00000   0.20218
  52        3PX         0.00000   0.06809   0.24505   0.00000   0.24050
  53        3PY         0.00000   0.11189  -0.15026   0.00000  -0.14779
  54        3PZ         0.16188   0.00000   0.00000  -0.26480   0.00000
  55        4XX         0.00000  -0.01516  -0.01549   0.00000  -0.01181
  56        4YY         0.00000   0.01520  -0.00368   0.00000  -0.00771
  57        4ZZ         0.00000  -0.00002   0.00929   0.00000   0.00795
  58        4XY         0.00000  -0.00890   0.01338   0.00000   0.00465
  59        4XZ        -0.01911   0.00000   0.00000   0.02136   0.00000
  60        4YZ         0.01180   0.00000   0.00000  -0.01321   0.00000
  61 5   C  1S          0.00000   0.00750   0.03820   0.00000   0.00080
  62        2S          0.00000  -0.01260  -0.08489   0.00000  -0.00539
  63        2PX         0.00000  -0.11437   0.03055   0.00000  -0.16202
  64        2PY         0.00000  -0.19687   0.06581   0.00000   0.13525
  65        2PZ         0.20235   0.00000   0.00000  -0.15108   0.00000
  66        3S          0.00000  -0.03109  -0.09992   0.00000   0.04462
  67        3PX         0.00000  -0.08356   0.03033   0.00000  -0.05949
  68        3PY         0.00000  -0.09773  -0.03836   0.00000   0.03585
  69        3PZ         0.12249   0.00000   0.00000  -0.11854   0.00000
  70        4XX         0.00000  -0.01794   0.00293   0.00000   0.00149
  71        4YY         0.00000   0.01609  -0.00536   0.00000  -0.00441
  72        4ZZ         0.00000  -0.00106   0.00249   0.00000   0.00223
  73        4XY         0.00000  -0.01582  -0.01766   0.00000  -0.02510
  74        4XZ        -0.01096   0.00000   0.00000  -0.00321   0.00000
  75        4YZ        -0.00986   0.00000   0.00000   0.02223   0.00000
  76 6   C  1S          0.00000  -0.00750  -0.03822   0.00000   0.00078
  77        2S          0.00000   0.01261   0.08492   0.00000  -0.00534
  78        2PX         0.00000   0.12410  -0.04496   0.00000   0.19388
  79        2PY         0.00000   0.19106  -0.05705   0.00000  -0.08348
  80        2PZ         0.20227   0.00000   0.00000   0.15094   0.00000
  81        3S          0.00000   0.03108   0.09998   0.00000   0.04462
  82        3PX         0.00000   0.04952   0.04790   0.00000   0.05889
  83        3PY         0.00000   0.11873  -0.00982   0.00000  -0.03681
  84        3PZ         0.12247   0.00000   0.00000   0.11847   0.00000
  85        4XX         0.00000  -0.02021  -0.00864   0.00000   0.01428
  86        4YY         0.00000   0.02205   0.01108   0.00000  -0.01722
  87        4ZZ         0.00000   0.00106  -0.00249   0.00000   0.00223
  88        4XY         0.00000  -0.00645   0.01431   0.00000  -0.01761
  89        4XZ        -0.00384   0.00000   0.00000  -0.02129   0.00000
  90        4YZ        -0.01422   0.00000   0.00000  -0.00716   0.00000
  91 7   H  1S          0.00000  -0.14762  -0.01777   0.00000  -0.08531
  92        2S          0.00000  -0.11046  -0.00818   0.00000  -0.10364
  93        3PX         0.00000   0.00606  -0.00030   0.00000   0.00119
  94        3PY         0.00000   0.00175   0.00107   0.00000   0.00361
  95        3PZ         0.00361   0.00000   0.00000  -0.00297   0.00000
  96 8   H  1S          0.00000   0.14771   0.01771   0.00000  -0.08525
  97        2S          0.00000   0.11053   0.00813   0.00000  -0.10358
  98        3PX         0.00000   0.00118  -0.00110   0.00000   0.00268
  99        3PY         0.00000  -0.00620  -0.00021   0.00000   0.00269
 100        3PZ         0.00361   0.00000   0.00000   0.00297   0.00000
 101 9   H  1S          0.00000   0.14788  -0.01697   0.00000  -0.08501
 102        2S          0.00000   0.11060  -0.00756   0.00000  -0.10329
 103        3PX         0.00000  -0.00118  -0.00110   0.00000  -0.00268
[...]
      6  0.719059D+00
      7  0.843368D-01  0.673532D+00
      8  0.000000D+00  0.000000D+00  0.822211D-01
      9 -0.278386D-01  0.126284D-02  0.000000D+00  0.415484D+00
     10 -0.105567D+00 -0.686060D-01  0.000000D+00 -0.231252D-04  0.673955D+00
     11  0.000000D+00  0.000000D+00 -0.192665D-01  0.000000D+00  0.000000D+00
     12 -0.191320D+00  0.249734D-04  0.000000D+00  0.104669D-01 -0.164931D-02
     13 -0.105086D-01  0.234894D-01  0.000000D+00 -0.390821D-01 -0.298060D+00
     14  0.000000D+00  0.000000D+00  0.228046D-01  0.000000D+00  0.000000D+00
     15  0.534617D-01 -0.843996D-01  0.000000D+00 -0.279123D-01  0.107138D+00
     16 -0.263091D-01 -0.297562D+00  0.000000D+00 -0.112656D+00  0.234652D-01
     17  0.000000D+00  0.000000D+00 -0.550200D-01  0.000000D+00  0.000000D+00
     18 -0.524840D-01 -0.106834D+00  0.000000D+00 -0.192084D+00  0.844343D-01
     19  0.277293D-02  0.110910D-02  0.000000D+00  0.599897D-03 -0.303738D-01
     20  0.000000D+00  0.000000D+00  0.744243D-02  0.000000D+00  0.000000D+00
     21  0.143467D-03 -0.906787D-03  0.000000D+00 -0.738712D-02  0.217515D-01
     22 -0.785330D-03 -0.303691D-01  0.000000D+00  0.825681D-02  0.110871D-02
     23  0.000000D+00  0.000000D+00 -0.658536D-02  0.000000D+00  0.000000D+00
     24 -0.100689D-02 -0.217558D-01  0.000000D+00  0.140020D-01  0.907737D-03
     25  0.135541D+00  0.110786D-02  0.000000D+00 -0.609063D-03 -0.303338D-01
     26  0.000000D+00  0.000000D+00  0.747313D-02  0.000000D+00  0.000000D+00
     27 -0.148602D+00  0.912761D-03  0.000000D+00 -0.736474D-02 -0.217345D-01
     28  0.444333D-02 -0.303463D-01  0.000000D+00 -0.829451D-02  0.110870D-02
     29  0.000000D+00  0.000000D+00 -0.655209D-02  0.000000D+00  0.000000D+00
     30 -0.651937D-02  0.217319D-01  0.000000D+00  0.139869D-01 -0.912810D-03
               11            12            13            14            15 
     11  0.821714D-01
     12  0.000000D+00  0.415579D+00
     13  0.000000D+00  0.112959D+00  0.772702D+00
     14 -0.549556D-01  0.000000D+00  0.000000D+00  0.136087D+00
     15  0.000000D+00 -0.192205D+00  0.514099D-01  0.000000D+00  0.717730D+00
     16  0.000000D+00  0.391015D-01 -0.140608D+00  0.000000D+00  0.307310D-01
     17  0.228098D-01  0.000000D+00  0.000000D+00 -0.639180D-01  0.000000D+00
     18  0.000000D+00 -0.279351D-01 -0.307413D-01  0.000000D+00 -0.342873D+00
     19  0.000000D+00 -0.824867D-02 -0.264483D+00  0.000000D+00 -0.135270D+00
     20 -0.658907D-02  0.000000D+00  0.000000D+00 -0.380701D-01  0.000000D+00
     21  0.000000D+00  0.140118D-01 -0.137170D+00  0.000000D+00 -0.148320D+00
     22  0.000000D+00 -0.600280D-03  0.481677D-02  0.000000D+00 -0.443896D-02
     23  0.744313D-02  0.000000D+00  0.000000D+00  0.195011D-02  0.000000D+00
     24  0.000000D+00 -0.738904D-02  0.291892D-01  0.000000D+00 -0.651389D-02
     25  0.000000D+00  0.829030D-02 -0.223684D-02  0.000000D+00 -0.278833D-02
     26 -0.656061D-02  0.000000D+00  0.000000D+00  0.125232D-01  0.000000D+00
     27  0.000000D+00  0.139879D-01 -0.520631D-02  0.000000D+00  0.140339D-03
     28  0.000000D+00  0.609308D-03 -0.564389D-04  0.000000D+00  0.780435D-03
     29  0.747412D-02  0.000000D+00  0.000000D+00  0.288523D-03  0.000000D+00
     30  0.000000D+00 -0.736239D-02  0.282162D-02  0.000000D+00 -0.101828D-02
               16            17            18            19            20 
     16  0.772192D+00
     17  0.000000D+00  0.136129D+00
     18 -0.517720D-01  0.000000D+00  0.717683D+00
     19  0.481097D-02  0.000000D+00  0.443352D-02  0.291715D+00
     20  0.000000D+00  0.195636D-02  0.000000D+00  0.000000D+00  0.262234D-01
     21 -0.291998D-01  0.000000D+00 -0.653204D-02  0.136499D+00  0.000000D+00
     22 -0.264468D+00  0.000000D+00  0.135307D+00  0.760933D-04  0.000000D+00
     23  0.000000D+00 -0.380622D-01  0.000000D+00  0.000000D+00 -0.155322D-02
     24  0.137220D+00  0.000000D+00 -0.148365D+00 -0.543963D-03  0.000000D+00
     25 -0.552592D-04  0.000000D+00 -0.779846D-03 -0.699522D-03  0.000000D+00
     26  0.000000D+00  0.289106D-03  0.000000D+00  0.000000D+00  0.636791D-03
     27 -0.282111D-02  0.000000D+00 -0.101822D-02 -0.745323D-03  0.000000D+00
     28 -0.223758D-02  0.000000D+00  0.278974D-02  0.126949D-03  0.000000D+00
     29  0.000000D+00  0.125218D-01  0.000000D+00  0.000000D+00 -0.289928D-02
     30  0.520553D-02  0.000000D+00  0.142115D-03 -0.281711D-03  0.000000D+00
               21            22            23            24            25 
     21  0.147987D+00
     22  0.544650D-03  0.291695D+00
     23  0.000000D+00  0.000000D+00  0.262191D-01
     24  0.367500D-03 -0.136535D+00  0.000000D+00  0.148027D+00
     25  0.746025D-03  0.126867D-03  0.000000D+00  0.279939D-03  0.291677D+00
     26  0.000000D+00  0.000000D+00 -0.289864D-02  0.000000D+00  0.000000D+00
     27  0.516135D-03  0.281451D-03  0.000000D+00  0.220417D-03 -0.136780D+00
     28 -0.280195D-03 -0.700361D-03  0.000000D+00 -0.746433D-03  0.771504D-04
     29  0.000000D+00  0.000000D+00  0.636506D-03  0.000000D+00  0.000000D+00
     30  0.220523D-03  0.745460D-03  0.000000D+00  0.515977D-03  0.543166D-03
               26            27            28            29            30 
     26  0.261870D-01
     27  0.000000D+00  0.148275D+00
     28  0.000000D+00 -0.543476D-03  0.291527D+00
     29 -0.156792D-02  0.000000D+00  0.000000D+00  0.262115D-01
     30  0.000000D+00  0.369858D-03  0.136712D+00  0.000000D+00  0.148271D+00
 Force constants in internal coordinates: 
                1             2             3             4             5 
      1  0.952257D+00
      2  0.285698D+00  0.714179D+00
      3  0.266121D+00 -0.335808D-01  0.703125D+00
      4 -0.242634D+00 -0.156942D+00  0.442999D-01  0.665193D+00
      5 -0.223149D+00  0.243899D-01 -0.126207D+00 -0.761910D-02  0.613917D+00
      6  0.306064D-02 -0.579234D-02  0.637100D-02  0.179860D-01 -0.776012D-02
      7  0.305001D-02  0.740484D-02 -0.683639D-02 -0.879206D-02  0.190159D-01
      8  0.305096D-02 -0.111100D-03  0.135507D-01 -0.128643D-02 -0.142681D-02
      9  0.304862D-02  0.133321D-01  0.113362D-03 -0.120161D-02 -0.151170D-02
     10  0.203907D+01  0.116375D+01  0.719555D+00 -0.967371D+00 -0.730814D+00
     11  0.200859D+01  0.772616D+00  0.109361D+01 -0.725409D+00 -0.893758D+00
     12  0.947647D+00  0.152060D+00  0.814778D+00 -0.578403D-01 -0.592451D+00
     13  0.100967D+01  0.845565D+00  0.155920D+00 -0.658953D+00 -0.151992D+00
     14  0.304439D-01  0.540856D-01 -0.371206D-01 -0.112144D+00  0.331459D-01
     15 -0.304257D-01 -0.499043D-01  0.329598D-01  0.538653D-01  0.251234D-01
     16 -0.304206D-01 -0.857357D-02  0.549692D-01  0.125453D-01  0.309821D-02
     17 -0.304087D-01  0.539376D-01 -0.752760D-02  0.414347D-02  0.115024D-01
     18  0.000000D+00  0.000000D+00  0.000000D+00  0.000000D+00  0.000000D+00
     19  0.000000D+00  0.000000D+00  0.000000D+00  0.000000D+00  0.000000D+00
     20  0.000000D+00  0.000000D+00  0.000000D+00  0.000000D+00  0.000000D+00
     21  0.000000D+00  0.000000D+00  0.000000D+00  0.000000D+00  0.000000D+00
     22  0.000000D+00  0.000000D+00  0.000000D+00  0.000000D+00  0.000000D+00
     23  0.000000D+00  0.000000D+00  0.000000D+00  0.000000D+00  0.000000D+00
     24  0.000000D+00  0.000000D+00  0.000000D+00  0.000000D+00  0.000000D+00
                6             7             8             9            10 
      6  0.374104D+00
      7  0.438660D-03  0.374132D+00
      8 -0.534168D-05  0.957178D-04  0.374403D+00
      9  0.958525D-04 -0.516076D-05  0.438072D-03  0.374231D+00
     10  0.552191D-02  0.282629D-01  0.762916D-02 -0.151332D-01  0.901217D+01
     11  0.251911D-01  0.535479D-02 -0.142467D-01  0.744240D-02  0.804588D+01
     12  0.316106D-01 -0.147324D-01  0.421141D-02 -0.199333D-02  0.364493D+01
     13 -0.129127D-01  0.363851D-01 -0.217020D-02  0.296467D-02  0.472479D+01
     14  0.312317D-02  0.129866D-03 -0.888366D-03  0.186213D-03  0.957562D-01
     15 -0.128580D-03 -0.311422D-02 -0.186088D-03  0.889407D-03 -0.237736D+00
     16  0.889339D-03 -0.189739D-03 -0.311587D-02 -0.123085D-03 -0.348587D-01
     17 -0.190139D-03  0.889779D-03 -0.122554D-03 -0.310753D-02  0.107078D+00
     18  0.000000D+00  0.000000D+00  0.000000D+00  0.000000D+00  0.000000D+00
     19  0.000000D+00  0.000000D+00  0.000000D+00  0.000000D+00  0.000000D+00
     20  0.000000D+00  0.000000D+00  0.000000D+00  0.000000D+00  0.000000D+00
     21  0.000000D+00  0.000000D+00  0.000000D+00  0.000000D+00  0.000000D+00
     22  0.000000D+00  0.000000D+00  0.000000D+00  0.000000D+00  0.000000D+00
     23  0.000000D+00  0.000000D+00  0.000000D+00  0.000000D+00  0.000000D+00
     24  0.000000D+00  0.000000D+00  0.000000D+00  0.000000D+00  0.000000D+00
               11            12            13            14            15 
     11  0.881054D+01
     12  0.449985D+01  0.323343D+01
     13  0.381831D+01  0.126384D+01  0.332682D+01
     14 -0.369892D-01 -0.186171D+00  0.951668D-01  0.274922D+00
     15 -0.988055D-01  0.419328D-01 -0.228766D+00  0.306091D-02  0.274887D+00
     16  0.112228D+00  0.231793D-01  0.105181D-02 -0.511867D-02 -0.185713D-02
     17 -0.367112D-01  0.874849D-03  0.163846D-01  0.185863D-02  0.512109D-02
     18  0.000000D+00  0.000000D+00  0.000000D+00  0.000000D+00  0.000000D+00
     19  0.000000D+00  0.000000D+00  0.000000D+00  0.000000D+00  0.000000D+00
     20  0.000000D+00  0.000000D+00  0.000000D+00  0.000000D+00  0.000000D+00
     21  0.000000D+00  0.000000D+00  0.000000D+00  0.000000D+00  0.000000D+00
     22  0.000000D+00  0.000000D+00  0.000000D+00  0.000000D+00  0.000000D+00
     23  0.000000D+00  0.000000D+00  0.000000D+00  0.000000D+00  0.000000D+00
     24  0.000000D+00  0.000000D+00  0.000000D+00  0.000000D+00  0.000000D+00
               16            17            18            19            20 
     16  0.274763D+00
     17 -0.306344D-02  0.274763D+00
     18  0.000000D+00  0.000000D+00  0.777018D+00
     19  0.000000D+00  0.000000D+00  0.506544D+00  0.435914D+00
     20  0.000000D+00  0.000000D+00  0.593624D+00  0.365760D+00  0.551819D+00
     21  0.000000D+00  0.000000D+00 -0.120897D+00 -0.523848D-01 -0.999820D-01
     22  0.000000D+00  0.000000D+00  0.419305D-01  0.115158D-01  0.548185D-01
     23  0.000000D+00  0.000000D+00 -0.674519D-02 -0.323580D-01  0.374671D-02
     24  0.000000D+00  0.000000D+00 -0.144559D-01  0.541698D-02 -0.425015D-01
               21            22            23            24 
     21  0.809332D-01
     22 -0.499242D-02  0.875602D-01
     23  0.204717D-02 -0.968745D-02  0.875399D-01
     24  0.932215D-02 -0.212758D-02  0.524187D-02  0.875413D-01
 Leave Link  716 at Mon Jan  9 11:30:12 2017, MaxMem=   131072000 cpu:         0.1
 (Enter /mnt/software/gaussian/g09/l103.exe)

 GradGradGradGradGradGradGradGradGradGradGradGradGradGradGradGradGradGrad
 Berny optimization.
 Search for a local minimum.
 Step number   1 out of a maximum of    2
 All quantities printed in internal units (Hartrees-Bohrs-Radians)
 Second derivative matrix not updated -- analytic derivatives used.
 ITU=  0
     Eigenvalues ---    0.03016   0.04133   0.06895   0.08545   0.09861
     Eigenvalues ---    0.16074   0.19490   0.20082   0.22949   0.24479
     Eigenvalues ---    0.32221   0.36013   0.36522   0.37336   0.37460
     Eigenvalues ---    0.37878   0.42533   0.44396   0.52909   0.56806
     Eigenvalues ---    0.61293   1.62308   2.98176  22.02241
 Angle between quadratic step and forces=  66.01 degrees.
 Linear search not attempted -- first point.
 Variable       Old X    -DE/DX   Delta X   Delta X   Delta X     New X
                                 (Linear)    (Quad)   (Total)
   cc2        2.63643  -0.00018   0.00000   0.00050   0.00050   2.63693
   nc3        2.54121  -0.00045   0.00000  -0.00103  -0.00103   2.54018
   ncc3       2.13573  -0.00093   0.00000   0.00018   0.00018   2.13591
   nc4        2.54128  -0.00059   0.00000  -0.00110  -0.00110   2.54018
   ncc4       2.13572  -0.00112   0.00000   0.00020   0.00020   2.13591
   dih4       0.00000   0.00000   0.00000   0.00000   0.00000   0.00000
   cn5        2.53898   0.00046   0.00000   0.00120   0.00120   2.54018
   cnc5       2.01163  -0.00078   0.00000  -0.00028  -0.00028   2.01136
   dih5       0.00000   0.00000   0.00000   0.00000   0.00000   0.00000
   cn6        2.53942   0.00035   0.00000   0.00076   0.00076   2.54018
   cnc6       2.01150  -0.00047   0.00000  -0.00014  -0.00014   2.01136
   dih6       0.00000   0.00000   0.00000   0.00000   0.00000   0.00000
   hc7        2.04760  -0.00005   0.00000  -0.00019  -0.00019   2.04741
   hcc7       2.10878   0.00015   0.00000   0.00077   0.00077   2.10955
   dih7       3.14159   0.00000   0.00000   0.00000   0.00000   3.14159
   hc8        2.04758  -0.00005   0.00000  -0.00017  -0.00017   2.04741
   hcn8       2.03820  -0.00009   0.00000  -0.00048  -0.00048   2.03772
   dih8       3.14159   0.00000   0.00000   0.00000   0.00000   3.14159
   hc9        2.04737   0.00000   0.00000   0.00005   0.00005   2.04741
   hcn9       2.03763  -0.00002   0.00000   0.00009   0.00009   2.03772
   dih9       3.14159   0.00000   0.00000   0.00000   0.00000   3.14159
   hc10       2.04752  -0.00006   0.00000  -0.00010  -0.00010   2.04741
  hcn10       2.03746   0.00003   0.00000   0.00026   0.00026   2.03772
  dih10       3.14159   0.00000   0.00000   0.00000   0.00000   3.14159
         Item               Value     Threshold  Converged?
 Maximum Force            0.001118     0.000450     NO 
 RMS     Force            0.000404     0.000300     NO 
 Maximum Displacement     0.001197     0.001800     YES
 RMS     Displacement     0.000487     0.001200     YES
 Predicted change in Energy=-9.590343D-07
 GradGradGradGradGradGradGradGradGradGradGradGradGradGradGradGradGradGrad

 Leave Link  103 at Mon Jan  9 11:30:12 2017, MaxMem=   131072000 cpu:         0.1
 (Enter /mnt/software/gaussian/g09/l9999.exe)
 1\1\GINC-TP-LINUX1\Freq\RMP2-FC\6-31G(d,p)\C4H4N2\THOMAS\09-Jan-2017\1
 \\#P MP2 6-31G** Freq=HPModes pop=full gfinput\\\0,1\C\C,1,cc2\N,1,nc3
 ,2,ncc3\N,2,nc4,1,ncc4,3,dih4,0\C,4,cn5,2,cnc5,1,dih5,0\C,3,cn6,1,cnc6
 ,2,dih6,0\H,5,hc7,6,hcc7,3,dih7,0\H,6,hc8,3,hcn8,1,dih8,0\H,2,hc9,4,hc
 n9,5,dih9,0\H,1,hc10,3,hcn10,6,dih10,0\\cc2=1.39513903\nc3=1.34474977\
 ncc3=122.36847125\nc4=1.34478587\ncc4=122.36763957\dih4=0.\cn5=1.34357
 055\cnc5=115.2580225\dih5=0.\cn6=1.34380336\cnc6=115.25043097\dih6=0.\
 hc7=1.08354524\hcc7=120.82424778\dih7=180.\hc8=1.08353503\hcn8=116.780
 08727\dih8=180.\hc9=1.08342009\hcn9=116.74734996\dih9=180.\hc10=1.0834
 9882\hcn10=116.73763185\dih10=180.\\Version=ES64L-G09RevD.01\State=1-A
 '\HF=-262.6865298\MP2=-263.5346689\RMSD=5.116e-09\RMSF=2.317e-04\ZeroP
 oint=0.0778931\Thermal=0.0820995\Dipole=0.0001507,0.,0.0000346\DipoleD
 eriv=0.1639997,0.,0.125674,0.,0.0586601,0.,0.3909749,0.,0.1395916,0.16
 3939,0.,-0.1256259,0.,0.0586545,0.,-0.3909546,0.,0.1396241,-0.1987865,
 0.,-0.0001605,0.,-0.301463,0.,-0.0008428,0.,-0.3610611,-0.1988277,0.,0
 .0001992,0.,-0.3014522,0.,0.0009172,0.,-0.3612229,0.164782,0.,0.125921
 4,0.,0.0592997,0.,0.3904287,0.,0.1403036,0.1646562,0.,-0.1259414,0.,0.
 0592589,0.,-0.390442,0.,0.140026,-0.0652834,0.,-0.0563119,0.,0.0916114
 ,0.,-0.0648646,0.,0.0406259,-0.0652063,0.,0.0562723,0.,0.091635,0.,0.0
 648363,0.,0.040634,-0.0646128,0.,0.0560209,0.,0.0918991,0.,0.0648862,0
 .,0.0407455,-0.0646603,0.,-0.056048,0.,0.0918965,0.,-0.0649393,0.,0.04
 07332\Polar=65.0347075,0.,20.3367313,0.0014506,0.,53.260364\PG=CS [SG(
 C4H4N2)]\NImag=0\\0.77015426,0.,0.13612924,0.05309694,0.,0.71909824,-0
 .14048434,0.,0.03069554,0.77026434,0.,-0.06364516,0.,0.,0.13611237,-0.
 03070150,0.,-0.34489356,-0.05322235,0.,0.71905918,-0.29578397,0.,0.105
 62726,0.02342907,0.,0.08433676,0.67353161,0.,-0.05522430,0.,0.,0.02270
 695,0.,0.,0.08222105,0.11147522,0.,-0.19135284,0.03906980,0.,-0.027838
 57,0.00126284,0.,0.41548410,0.02344020,0.,-0.08434437,-0.29570456,0.,-
 0.10556716,-0.06860604,0.,-0.00002313,0.67395510,0.,0.02270796,0.,0.,-
 0.05523467,0.,0.,-0.01926649,0.,0.,0.08217140,-0.03906523,0.,-0.027834
 21,-0.11142127,0.,-0.19131975,0.00002497,0.,0.01046689,-0.00164931,0.,
 0.41557938,-0.00923037,0.,0.02632932,-0.08633307,0.,-0.01050863,0.0234
 8938,0.,-0.03908206,-0.29805978,0.,0.11295870,0.77270176,0.,-0.0124613
 0,0.,0.,-0.00424831,0.,0.,0.02280464,0.,0.,-0.05495560,0.,0.,0.1360868
 2,0.02631499,0.,-0.05248890,0.01052308,0.,0.05346171,-0.08439965,0.,-0
 .02791230,0.10713776,0.,-0.19220543,0.05140994,0.,0.71772983,-0.086309
 53,0.,0.01050001,-0.00922738,0.,-0.02630914,-0.29756158,0.,-0.11265581
 ,0.02346516,0.,0.03910148,-0.14060824,0.,0.03073100,0.77219166,0.,-0.0
 0424774,0.,0.,-0.01245800,0.,0.,-0.05501997,0.,0.,0.02280983,0.,0.,-0.
 06391801,0.,0.,0.13612885,-0.01052082,0.,0.05346702,-0.02631670,0.,-0.
 05248403,-0.10683430,0.,-0.19208437,0.08443433,0.,-0.02793509,-0.03074
 132,0.,-0.34287311,-0.05177199,0.,0.71768254,-0.00006438,0.,0.00078444
 ,-0.00221769,0.,0.00277293,0.00110910,0.,0.00059990,-0.03037375,0.,-0.
 00824867,-0.26448317,0.,-0.13527027,0.00481097,0.,0.00443352,0.2917154
 0,0.,0.00028712,0.,0.,0.01256558,0.,0.,0.00744243,0.,0.,-0.00658907,0.
 ,0.,-0.03807009,0.,0.,0.00195636,0.,0.,0.02622338,0.00282056,0.,-0.001
 00699,0.00519549,0.,0.00014347,-0.00090679,0.,-0.00738712,0.02175146,0
 .,0.01401178,-0.13717050,0.,-0.14831996,-0.02919984,0.,-0.00653204,0.1
 3649914,0.,0.14798671,-0.00222280,0.,-0.00277632,-0.00006330,0.,-0.000
 78533,-0.03036914,0.,0.00825681,0.00110871,0.,-0.00060028,0.00481677,0
 .,-0.00443896,-0.26446822,0.,0.13530739,0.00007609,0.,0.00054465,0.291
 69539,0.,0.01256383,0.,0.,0.00028682,0.,0.,-0.00658536,0.,0.,0.0074431
 3,0.,0.,0.00195011,0.,0.,-0.03806225,0.,0.,-0.00155322,0.,0.,0.0262190
 7,-0.00519560,0.,0.00014212,-0.00282017,0.,-0.00100689,-0.02175575,0.,
 0.01400204,0.00090774,0.,-0.00738904,0.02918924,0.,-0.00651389,0.13721
 988,0.,-0.14836480,-0.00054396,0.,0.00036750,-0.13653488,0.,0.14802657
 ,0.00483468,0.,-0.00444298,-0.26449809,0.,0.13554109,0.00110786,0.,-0.
 00060906,-0.03033375,0.,0.00829030,-0.00223684,0.,-0.00278833,-0.00005
 526,0.,-0.00077985,-0.00069952,0.,0.00074603,0.00012687,0.,0.00027994,
 0.29167690,0.,0.00194209,0.,0.,-0.03802417,0.,0.,0.00747313,0.,0.,-0.0
 0656061,0.,0.,0.01252322,0.,0.,0.00028911,0.,0.,0.00063679,0.,0.,-0.00
 289864,0.,0.,0.02618699,0.02917483,0.,-0.00652493,0.13746199,0.,-0.148
 60219,0.00091276,0.,-0.00736474,-0.02173451,0.,0.01398787,-0.00520631,
 0.,0.00014034,-0.00282111,0.,-0.00101822,-0.00074532,0.,0.00051614,0.0
 0028145,0.,0.00022042,-0.13678030,0.,0.14827547,-0.26433375,0.,-0.1354
 6985,0.00483502,0.,0.00444333,-0.03034630,0.,-0.00829451,0.00110870,0.
 ,0.00060931,-0.00005644,0.,0.00078044,-0.00223758,0.,0.00278974,0.0001
 2695,0.,-0.00028019,-0.00070036,0.,-0.00074643,0.00007715,0.,-0.000543
 48,0.29152661,0.,-0.03805174,0.,0.,0.00193858,0.,0.,-0.00655209,0.,0.,
 0.00747412,0.,0.,0.00028852,0.,0.,0.01252182,0.,0.,-0.00289928,0.,0.,0
 .00063651,0.,0.,-0.00156792,0.,0.,0.02621149,-0.13739938,0.,-0.1486059
 4,-0.02916541,0.,-0.00651937,0.02173189,0.,0.01398691,-0.00091281,0.,-
 0.00736239,0.00282162,0.,-0.00101828,0.00520553,0.,0.00014212,-0.00028
 171,0.,0.00022052,0.00074546,0.,0.00051598,0.00054317,0.,0.00036986,0.
 13671164,0.,0.14827060\\-0.00030510,0.,0.00026259,-0.00035577,0.,-0.00
 023038,0.00045216,0.,-0.00003023,0.00065639,0.,-0.00008853,-0.00036400
 ,0.,0.00054364,-0.00018687,0.,-0.00038242,0.00008277,0.,-0.00003512,0.
 00006551,0.,0.00000933,-0.00000584,0.,-0.00000713,-0.00003926,0.,-0.00
 004174\\\@


 GARLIC THEN HAVE POWER TO SAVE FROM DEATH
 BEAR WITH IT THOUGH IT MAKETH UNSAVORY BREATH,
 AND SCORN NOT GARLIC LIKE SOME THAT THINK
 IT ONLY MAKETH MEN WINK AND DRINK AND STINK.
   --  SIR JOHN HARRINGTON,
       "THE ENGLISHMAN'S DOCTOR", 1609
 Job cpu time:       0 days  0 hours  4 minutes 42.4 seconds.
 File lengths (MBytes):  RWF=    980 Int=      0 D2E=      0 Chk=      2 Scr=      1
 Normal termination of Gaussian 09 at Mon Jan  9 11:30:12 2017.
